# vtk DataFile Version 2.0
track0
ASCII
DATASET POLYDATA
POINTS 12075 float
-0.0205 0.001 1e-05
-0.02052 0.000999985 1e-05
-0.02054 0.000999974 1e-05
-0.02056 0.000999965 1e-05
-0.02058 0.000999959 1e-05
-0.0206 0.000999956 1e-05
-0.0205 0.00367778 1e-05
-0.02052 0.00367778 1e-05
-0.02054 0.00367777 1e-05
-0.02056 0.00367777 1e-05
-0.02058 0.00367777 1e-05
-0.0206 0.00367777 1e-05
-0.0205 0.00635556 1e-05
-0.02052 0.00635555 1e-05
-0.02054 0.00635555 1e-05
-0.02056 0.00635555 1e-05
-0.02058 0.00635555 1e-05
-0.0206 0.00635555 1e-05
-0.0205 0.00903333 1e-05
-0.02052 0.00903333 1e-05
-0.02054 0.00903333 1e-05
-0.02056 0.00903333 1e-05
-0.02058 0.00903333 1e-05
-0.0206 0.00903333 1e-05
-0.0205 0.0117111 1e-05
-0.02052 0.0117111 1e-05
-0.02054 0.0117111 1e-05
-0.02056 0.0117111 1e-05
-0.02058 0.0117111 1e-05
-0.0206 0.0117111 1e-05
-0.0205 0.0143889 1e-05
-0.02052 0.0143889 1e-05
-0.02054 0.0143889 1e-05
-0.02056 0.0143889 1e-05
-0.02058 0.0143889 1e-05
-0.0206 0.0143889 1e-05
-0.0205 0.0170667 1e-05
-0.02052 0.0170667 1e-05
-0.02054 0.0170667 1e-05
-0.02056 0.0170667 1e-05
-0.02058 0.0170667 1e-05
-0.0206 0.0170667 1e-05
-0.0205 0.0197444 1e-05
-0.02052 0.0197444 1e-05
-0.02054 0.0197444 1e-05
-0.02056 0.0197444 1e-05
-0.02058 0.0197444 1e-05
-0.0206 0.0197444 1e-05
-0.0205 0.0224222 1e-05
-0.02052 0.0224222 1e-05
-0.02054 0.0224222 1e-05
-0.02056 0.0224222 1e-05
-0.02058 0.0224222 1e-05
-0.0206 0.0224222 1e-05
-0.0205 0.0251 1e-05
-0.02052 0.0250998 1e-05
-0.02054 0.0250997 1e-05
-0.02056 0.0250995 1e-05
-0.02058 0.0250995 1e-05
-0.0206 0.0250994 1e-05
-0.0205 0.001 1e-05
-0.0202034 0.00100022 1e-05
-0.0199069 0.00100067 1e-05
-0.0196103 0.00100132 1e-05
-0.0193137 0.00100219 1e-05
-0.0190172 0.00100326 1e-05
-0.0187132 0.00100467 1e-05
-0.0184093 0.00100589 1e-05
-0.0181054 0.0010071 1e-05
-0.0178015 0.00100832 1e-05
-0.0174976 0.00100954 1e-05
-0.0172058 0.00101083 1e-05
-0.016914 0.00101194 1e-05
-0.0166222 0.00101304 1e-05
-0.0163305 0.00101414 1e-05
-0.0160387 0.00101524 1e-05
-0.0157586 0.00101638 1e-05
-0.0154784 0.00101746 1e-05
-0.0151983 0.00101858 1e-05
-0.0149182 0.00101973 1e-05
-0.0146381 0.00102092 1e-05
-0.014376 0.0010221 1e-05
-0.0141139 0.00102328 1e-05
-0.0138518 0.0010245 1e-05
-0.0135897 0.00102574 1e-05
-0.0133685 0.00102682 1e-05
-0.0133535 0.00102689 1e-05
-0.0133385 0.00102697 1e-05
-0.0133235 0.00102704 1e-05
-0.0133085 0.00102712 1e-05
-0.0132934 0.00102719 1e-05
-0.0130353 0.00102848 1e-05
-0.0127771 0.00102979 1e-05
-0.0125189 0.00103111 1e-05
-0.0122607 0.00103245 1e-05
-0.0120025 0.00103381 1e-05
-0.0117547 0.00103512 1e-05
-0.0115068 0.00103644 1e-05
-0.0112589 0.00103777 1e-05
-0.0110111 0.0010391 1e-05
-0.0107632 0.00104043 1e-05
-0.0105252 0.00104172 1e-05
-0.0102873 0.001043 1e-05
-0.0100493 0.00104429 1e-05
-0.00981133 0.00104557 1e-05
-0.00957337 0.00104686 1e-05
-0.00934491 0.00104809 1e-05
-0.00911645 0.00104932 1e-05
-0.00888799 0.00105055 1e-05
-0.00865954 0.00105178 1e-05
-0.00843108 0.001053 1e-05
-0.00821175 0.00105417 1e-05
-0.00799242 0.00105534 1e-05
-0.00777309 0.00105651 1e-05
-0.00755376 0.00105767 1e-05
-0.00733443 0.00105883 1e-05
-0.00712387 0.00105994 1e-05
-0.0069133 0.00106104 1e-05
-0.00670273 0.00106215 1e-05
-0.00649216 0.00106325 1e-05
-0.0062816 0.00106435 1e-05
-0.00607944 0.00106539 1e-05
-0.00587729 0.00106644 1e-05
-0.00567514 0.00106749 1e-05
-0.00547298 0.00106853 1e-05
-0.00527083 0.00106958 1e-05
-0.00507675 0.00107057 1e-05
-0.00488267 0.00107156 1e-05
-0.0046886 0.00107256 1e-05
-0.00449452 0.00107355 1e-05
-0.00430044 0.00107455 1e-05
-0.00411412 0.0010755 1e-05
-0.0039278 0.00107645 1e-05
-0.00374147 0.0010774 1e-05
-0.00355515 0.00107836 1e-05
-0.00336883 0.00107932 1e-05
-0.00318995 0.00108023 1e-05
-0.00301107 0.00108116 1e-05
-0.00283219 0.00108208 1e-05
-0.00265331 0.00108302 1e-05
-0.00247443 0.00108396 1e-05
-0.0023027 0.00108486 1e-05
-0.00213097 0.00108578 1e-05
-0.00195924 0.00108671 1e-05
-0.00178751 0.00108765 1e-05
-0.00161577 0.00108859 1e-05
-0.0014509 0.00108951 1e-05
-0.00128603 0.00109044 1e-05
-0.00112116 0.0010914 1e-05
-0.00095629 0.00109238 1e-05
-0.000791418 0.00109339 1e-05
-0.000633135 0.00109438 1e-05
-0.000474851 0.00109539 1e-05
-0.000316568 0.00109644 1e-05
-0.000158285 0.00109752 1e-05
0 0.00109863 1e-05
0.000105677 0.00109938 1e-05
0.000211355 0.00110015 1e-05
0.000317032 0.00110092 1e-05
0.000422709 0.0011017 1e-05
0.000528387 0.00110249 1e-05
0.000634886 0.00110328 1e-05
0.000741385 0.00110406 1e-05
0.000847885 0.00110484 1e-05
0.000954384 0.00110561 1e-05
0.00106088 0.00110637 1e-05
0.00116821 0.00110712 1e-05
0.00127554 0.00110786 1e-05
0.00138286 0.00110859 1e-05
0.00149019 0.0011093 1e-05
0.00159752 0.00110999 1e-05
0.00170568 0.00111067 1e-05
0.00181384 0.00111134 1e-05
0.001922 0.00111199 1e-05
0.00203016 0.00111263 1e-05
0.00213833 0.00111324 1e-05
0.00224733 0.00111384 1e-05
0.00235633 0.00111444 1e-05
0.00246533 0.00111502 1e-05
0.00257434 0.00111558 1e-05
0.00268334 0.00111612 1e-05
0.00279319 0.00111665 1e-05
0.00290304 0.00111717 1e-05
0.00301289 0.00111768 1e-05
0.00312274 0.00111817 1e-05
0.00323259 0.00111865 1e-05
0.00334329 0.00111911 1e-05
0.003454 0.00111956 1e-05
0.0035647 0.00112 1e-05
0.0036754 0.00112042 1e-05
0.00378611 0.00112083 1e-05
0.00389767 0.00112122 1e-05
0.00400924 0.00112161 1e-05
0.0041208 0.00112198 1e-05
0.00423237 0.00112234 1e-05
0.00434393 0.00112268 1e-05
0.00445636 0.001123 1e-05
0.00456879 0.00112332 1e-05
0.00468123 0.00112363 1e-05
0.00479366 0.00112392 1e-05
0.00490609 0.00112419 1e-05
0.0050194 0.00112445 1e-05
0.0051327 0.0011247 1e-05
0.00524601 0.00112494 1e-05
0.00535932 0.00112516 1e-05
0.00547262 0.00112538 1e-05
0.00558681 0.00112557 1e-05
0.005701 0.00112576 1e-05
0.00581518 0.00112593 1e-05
0.00592937 0.00112609 1e-05
0.00604356 0.00112624 1e-05
0.00615863 0.00112637 1e-05
0.00627371 0.0011265 1e-05
0.00638878 0.00112661 1e-05
0.00650386 0.00112671 1e-05
0.00661893 0.0011268 1e-05
0.0067349 0.00112687 1e-05
0.00685087 0.00112694 1e-05
0.00696684 0.00112699 1e-05
0.00708281 0.00112703 1e-05
0.00719878 0.00112706 1e-05
0.00731565 0.00112707 1e-05
0.00743252 0.00112708 1e-05
0.00754939 0.00112707 1e-05
0.00766626 0.00112705 1e-05
0.00778313 0.00112703 1e-05
0.00790091 0.00112698 1e-05
0.00801869 0.00112693 1e-05
0.00813647 0.00112686 1e-05
0.00825425 0.00112679 1e-05
0.00837203 0.0011267 1e-05
0.00843664 0.00112664 1e-05
0.00850125 0.00112659 1e-05
0.00856585 0.00112653 1e-05
0.00863046 0.00112646 1e-05
0.00869264 0.0011264 1e-05
0.00874722 0.00112634 1e-05
0.00880179 0.00112627 1e-05
0.00885636 0.00112621 1e-05
0.00891094 0.00112614 1e-05
0.00896551 0.00112607 1e-05
0.00908513 0.00112591 1e-05
0.00920475 0.00112574 1e-05
0.00932437 0.00112556 1e-05
0.00944398 0.00112537 1e-05
0.0095636 0.00112516 1e-05
0.00968415 0.00112494 1e-05
0.0098047 0.00112471 1e-05
0.00992525 0.00112447 1e-05
0.0100458 0.00112422 1e-05
0.0101663 0.00112395 1e-05
0.0102878 0.00112367 1e-05
0.0104093 0.00112338 1e-05
0.0105308 0.00112307 1e-05
0.0106523 0.00112276 1e-05
0.0107738 0.00112243 1e-05
0.0108962 0.00112209 1e-05
0.0110186 0.00112173 1e-05
0.0111411 0.00112137 1e-05
0.0112635 0.00112099 1e-05
0.0113859 0.00112061 1e-05
0.0115093 0.0011202 1e-05
0.0116327 0.00111978 1e-05
0.0117561 0.00111935 1e-05
0.0118795 0.00111891 1e-05
0.0120028 0.00111846 1e-05
0.0121272 0.00111799 1e-05
0.0122515 0.00111751 1e-05
0.0123759 0.00111702 1e-05
0.0125002 0.00111651 1e-05
0.0126245 0.001116 1e-05
0.0127498 0.00111546 1e-05
0.0128752 0.00111491 1e-05
0.0130005 0.00111436 1e-05
0.0131258 0.00111378 1e-05
0.0132511 0.0011132 1e-05
0.0133774 0.0011126 1e-05
0.0135036 0.00111199 1e-05
0.0136299 0.00111136 1e-05
0.0137562 0.00111072 1e-05
0.0138825 0.00111007 1e-05
0.0140098 0.0011094 1e-05
0.014137 0.00110872 1e-05
0.0142643 0.00110802 1e-05
0.0143915 0.00110731 1e-05
0.0145188 0.00110659 1e-05
0.0146471 0.00110586 1e-05
0.0147753 0.0011051 1e-05
0.0149036 0.00110433 1e-05
0.0150318 0.00110355 1e-05
0.0151601 0.00110276 1e-05
0.0152893 0.00110196 1e-05
0.0154186 0.00110113 1e-05
0.0155478 0.00110029 1e-05
0.0156771 0.00109943 1e-05
0.0158063 0.00109857 1e-05
0.0159366 0.00109769 1e-05
0.0160668 0.00109679 1e-05
0.0161971 0.00109588 1e-05
0.0163273 0.00109494 1e-05
0.0164576 0.001094 1e-05
0.0165889 0.00109305 1e-05
0.0167201 0.00109208 1e-05
0.0168514 0.00109108 1e-05
0.0169827 0.00109007 1e-05
0.0171139 0.00108905 1e-05
0.0172462 0.00108803 1e-05
0.0173785 0.00108697 1e-05
0.0175108 0.00108589 1e-05
0.0176431 0.0010848 1e-05
0.0177754 0.0010837 1e-05
0.0179087 0.0010826 1e-05
0.018042 0.00108146 1e-05
0.0181753 0.0010803 1e-05
0.0183087 0.00107911 1e-05
0.018442 0.00107793 1e-05
0.0185763 0.00107675 1e-05
0.0187107 0.00107553 1e-05
0.018845 0.00107427 1e-05
0.0189794 0.001073 1e-05
0.0191137 0.00107173 1e-05
0.0192491 0.00107046 1e-05
0.0193845 0.00106915 1e-05
0.0195199 0.00106781 1e-05
0.0196553 0.00106644 1e-05
0.0197907 0.00106509 1e-05
0.0199272 0.00106372 1e-05
0.0200636 0.00106232 1e-05
0.0202001 0.00106089 1e-05
0.0203365 0.00105943 1e-05
0.020473 0.00105798 1e-05
0.0206105 0.00105652 1e-05
0.020748 0.00105503 1e-05
0.0208855 0.00105349 1e-05
0.021023 0.00105194 1e-05
0.0211606 0.00105039 1e-05
0.0212991 0.00104884 1e-05
0.0214377 0.00104724 1e-05
0.0215763 0.00104561 1e-05
0.0217149 0.00104395 1e-05
0.0218535 0.0010423 1e-05
0.0219931 0.00104064 1e-05
0.0221328 0.00103894 1e-05
0.0222724 0.0010372 1e-05
0.0224121 0.00103544 1e-05
0.0225517 0.00103368 1e-05
0.0226925 0.00103192 1e-05
0.0228332 0.00103011 1e-05
0.022974 0.00102826 1e-05
0.0231147 0.00102639 1e-05
0.0232555 0.00102452 1e-05
0.0233973 0.00102264 1e-05
0.0235391 0.00102071 1e-05
0.023681 0.00101875 1e-05
0.0238228 0.00101676 1e-05
0.0239647 0.00101478 1e-05
0.0241076 0.00101278 1e-05
0.0242505 0.00101074 1e-05
0.0243935 0.00100866 1e-05
0.0245364 0.00100656 1e-05
0.0246794 0.00100445 1e-05
0.0248234 0.00100233 1e-05
0.0249675 0.00100016 1e-05
0.0251115 0.000997963 1e-05
0.0252556 0.000995742 1e-05
[...]
POINT_DATA 12075
 FIELD attributes 1
U 3 12075 float
10.0004 	0.00731909 	0 10.0004 	0.00585527 	0 10.0003 	0.00439145 	0 10.0002 	0.00292764 	0 10.0001 	0.00146382 	0 10 	0 	0
10.0001 	0.000883724 	0 10 	0.00070698 	0 10 	0.000530235 	0 10 	0.00035349 	0 10 	0.000176745 	0 10 	0 	0
10.0001 	0.000472045 	0 10.0001 	0.000377456 	0 10.0001 	0.000282866 	0 10 	0.000188277 	0 10 	9.36874e-05 	0 10 	0 	0
10 	0.000274645 	0 10 	0.000219716 	0 10 	0.000164787 	0 10 	0.000109858 	0 10 	5.49291e-05 	0 10 	0 	0
10 	8.88083e-05 	0 10 	7.10466e-05 	0 10 	5.3285e-05 	0 10 	3.55233e-05 	0 10 	1.77617e-05 	0 10 	0 	0
10 	-1.87183e-05 	0 10 	-1.49746e-05 	0 10 	-1.1231e-05 	0 10 	-7.48731e-06 	0 10 	-3.74366e-06 	0 10 	0 	0
10 	-0.00021093 	0 10 	-0.000168744 	0 10 	-0.000126558 	0 10 	-8.43718e-05 	0 10 	-4.21859e-05 	0 10 	0 	0
10 	-0.000374435 	0 10 	-0.000299548 	0 10 	-0.000224661 	0 10 	-0.000149774 	0 10 	-7.4887e-05 	0 10 	0 	0
9.99999 	-0.00042554 	0 9.99999 	-0.000340432 	0 9.99999 	-0.000255324 	0 10 	-0.000170216 	0 10 	-8.51081e-05 	0 10 	0 	0
9.17387 	0.0870994 	0 9.1308 	0.0696796 	0 9.08741 	0.0522594 	0 9.04368 	0.034839 	0 8.99962 	0.0174185 	0 8.95524 	0 	0
10.0004 	0.00731909 	0 10.0024 	0.0151722 	0 10.0045 	0.0221938 	0 10.0065 	0.0291712 	0 10.0085 	0.0361046 	0 10.0135 	0.0463223 	0 10.0163 	0.0402249 	0 10.0207 	0.0401871 	0 10.0251 	0.0401495 	0 10.0296 	0.0401121 	0 10.0355 	0.0445755 	0 10.0384 	0.0379416 	0 10.0424 	0.0379026 	0 10.0463 	0.0378637 	0 10.0503 	0.0378247 	0 10.0544 	0.040928 	0 10.0566 	0.0388596 	0 10.059 	0.0401755 	0 10.0614 	0.0414931 	0 10.0638 	0.0428123 	0 10.066 	0.0452734 	0 10.0675 	0.0453902 	0 10.0688 	0.0465946 	0 10.0701 	0.0478002 	0 10.0714 	0.0490068 	0 10.0725 	0.0500264 	0 10.0726 	0.0500961 	0 10.0726 	0.0501657 	0 10.0727 	0.0502354 	0 10.0728 	0.0503051 	0 10.0729 	0.0503643 	0 10.0734 	0.0510031 	0 10.0738 	0.0516352 	0 10.0743 	0.0522678 	0 10.0748 	0.0529009 	0 10.0753 	0.053369 	0 10.0751 	0.0536808 	0 10.0747 	0.0538863 	0 10.0743 	0.054092 	0 10.0739 	0.0542977 	0 10.0734 	0.0542645 	0 10.0729 	0.0544313 	0 10.0717 	0.0544289 	0 10.0706 	0.0544265 	0 10.0695 	0.0544241 	0 10.0678 	0.0541527 	0 10.0674 	0.0542632 	0 10.0657 	0.0541592 	0 10.064 	0.0540551 	0 10.0623 	0.053951 	0 10.0597 	0.0535618 	0 10.0596 	0.0536585 	0 10.0575 	0.053506 	0 10.0554 	0.0533535 	0 10.0533 	0.0532009 	0 10.0496 	0.0527525 	0 10.0501 	0.0528673 	0 10.0477 	0.0527083 	0 10.0453 	0.0525493 	0 10.0428 	0.0523902 	0 10.0381 	0.0519307 	0 10.0394 	0.0520952 	0 10.0367 	0.051962 	0 10.034 	0.0518289 	0 10.0313 	0.0516957 	0 10.0254 	0.0512535 	0 10.0277 	0.0514934 	0 10.0249 	0.0514271 	0 10.022 	0.0513608 	0 10.0192 	0.0512944 	0 10.012 	0.0509234 	0 10.0155 	0.0512839 	0 10.0124 	0.051318 	0 10.0094 	0.0513521 	0 10.0064 	0.0513862 	0 9.99795 	0.0511074 	0 10.0026 	0.0516495 	0 9.99956 	0.0519305 	0 9.99649 	0.0522116 	0 9.99343 	0.0524928 	0 9.98374 	0.0525133 	0 9.98983 	0.0534051 	0 9.98674 	0.0539679 	0 9.98366 	0.0545308 	0 9.98058 	0.055094 	0 9.96959 	0.0553082 	0 9.97731 	0.0565967 	0 9.9746 	0.057999 	0 9.9719 	0.0594014 	0 9.96921 	0.060804 	0 9.95738 	0.0620064 	0 9.96742 	0.0641344 	7.72073e-22 9.96635 	0.0660459 	6.23607e-21 9.96529 	0.0679576 	1.16979e-20 9.96425 	0.0698696 	1.71576e-20 9.95281 	0.0708948 	1.40685e-20 9.96517 	0.0722876 	1.0642e-19 9.96512 	0.0729052 	9.94224e-20 9.96506 	0.0735229 	9.24328e-20 9.96501 	0.0741406 	8.54509e-20 9.95353 	0.0737589 	-1.73531e-20 9.96648 	0.0734728 	-4.74844e-20 9.96645 	0.0726525 	-5.26038e-20 9.96641 	0.0718321 	-5.77185e-20 9.96637 	0.0710118 	-6.28284e-20 9.95446 	0.069908 	-2.22426e-20 9.96699 	0.0688755 	-1.98554e-20 9.96598 	0.067328 	-1.36075e-20 9.96496 	0.0657804 	-7.36094e-21 9.96393 	0.0642328 	-1.11568e-21 9.951 	0.0626714 	8.85459e-21 9.96303 	0.0617021 	-3.89878e-21 9.96106 	0.0600568 	-2.41537e-20 9.95908 	0.0584113 	-4.44131e-20 9.95709 	0.0567656 	-6.4677e-20 9.94312 	0.0548954 	-9.48909e-20 9.95481 	0.0542128 	-1.44999e-19 9.95205 	0.0527298 	-1.31683e-19 9.94928 	0.0512464 	-1.18351e-19 9.9465 	0.0497626 	-1.05005e-19 9.9316 	0.0477598 	-3.157e-20 9.94297 	0.0472395 	5.18453e-20 9.93947 	0.0458723 	6.67327e-20 9.93596 	0.0445048 	8.16012e-20 9.93244 	0.0431368 	9.64509e-20 9.91668 	0.0411071 	3.93666e-20 9.92766 	0.0406151 	-7.54506e-20 9.92341 	0.0393009 	-8.22897e-20 9.91915 	0.0379863 	-8.90995e-20 9.91487 	0.0366713 	-9.58801e-20 9.89831 	0.0346955 	-2.22395e-22 9.90877 	0.0342068 	9.17764e-20 9.90374 	0.0329294 	8.17492e-20 9.8987 	0.0316516 	7.16933e-20 9.89366 	0.0303732 	6.16087e-20 9.87638 	0.0284769 	-2.68985e-20 9.88611 	0.0279859 	-1.00977e-19 9.88032 	0.0267343 	-1.2532e-19 9.87451 	0.0254821 	-1.49654e-19 9.86869 	0.0242294 	-1.73976e-19 9.85087 	0.0224106 	-1.40756e-19 9.8596 	0.0219429 	-1.78635e-19 9.85306 	0.020738 	-1.65066e-19 9.84651 	0.0195326 	-1.51488e-19 9.83994 	0.0183266 	-1.37903e-19 9.82186 	0.0165938 	-8.43813e-20 9.82923 	0.0161692 	-7.32271e-20 9.822 	0.01503 	-5.30483e-20 9.81475 	0.0138901 	-3.28727e-20 9.8075 	0.0127497 	-1.27004e-20 9.78957 	0.0111116 	4.11319e-21 9.7951 	0.0107097 	0 9.78724 	0.00963207 	0 9.77936 	0.00855383 	0 9.77146 	0.00747494 	0 9.75421 	0.00594059 	0 9.75735 	0.00551591 	-1.47377e-20 9.74889 	0.00448764 	-3.53638e-20 9.74041 	0.00345866 	-5.5993e-20 9.73192 	0.00242897 	-7.66251e-20 9.71593 	0.00101811 	-1.00063e-19 9.71608 	0.000519985 	-1.15405e-19 9.70706 	-0.000467489 	-1.1595e-19 9.69802 	-0.00145573 	-1.16487e-19 9.68897 	-0.00244474 	-1.17015e-19 9.67488 	-0.00369908 	-1.07895e-19 9.67142 	-0.00431745 	-6.26276e-20 9.66189 	-0.00526656 	-3.10651e-20 9.65234 	-0.00621648 	4.81664e-22 9.64278 	-0.00716723 	3.20125e-20 9.63126 	-0.00822371 	5.77133e-20 9.62813 	-0.00859463 	6.18858e-20 9.62269 	-0.00909345 	6.19233e-20 9.61725 	-0.00959252 	6.19576e-20 9.6118 	-0.0100919 	6.19888e-20 9.60655 	-0.0105727 	6.20156e-20 9.60188 	-0.0109982 	6.24705e-20 9.59722 	-0.0114239 	6.29246e-20 9.59254 	-0.0118497 	6.33779e-20 9.58787 	-0.0122758 	6.38305e-20 9.58017 	-0.0128229 	6.47891e-20 9.57234 	-0.0136204 	5.14695e-20 9.5618 	-0.0145216 	3.8148e-20 9.55125 	-0.0154237 	2.48247e-20 9.54067 	-0.0163269 	1.14995e-20 9.52101 	-0.0175532 	-5.47277e-22 9.51822 	-0.0181619 	-1.08546e-20 9.50731 	-0.0190456 	-2.35066e-20 9.49638 	-0.0199303 	-3.61568e-20 9.48543 	-0.0208161 	-4.88051e-20 9.46014 	-0.0221437 	-6.1463e-20 9.46172 	-0.0226405 	-6.40054e-20 9.45048 	-0.0235123 	-7.16004e-20 9.43921 	-0.0243851 	-7.91906e-20 9.42793 	-0.0252591 	-8.67758e-20 9.39791 	-0.0266106 	-1.03386e-19 9.40317 	-0.0270756 	-1.43399e-19 9.39164 	-0.0279403 	-1.33293e-19 9.38008 	-0.028806 	-1.23207e-19 9.36851 	-0.0296729 	-1.1314e-19 9.3347 	-0.030971 	-4.29728e-20 9.34292 	-0.0314781 	-2.86459e-20 9.33115 	-0.0323379 	-2.03518e-20 9.31934 	-0.0331989 	-1.20566e-20 9.30752 	-0.034061 	-3.7601e-21 9.2708 	-0.0352324 	0 9.28133 	-0.0358475 	0 9.26934 	-0.0367049 	0 9.25733 	-0.0375636 	0 9.24529 	-0.0384235 	0 9.2065 	-0.0394052 	0 9.21873 	-0.0401857 	2.39128e-21 9.20656 	-0.041044 	1.00138e-20 9.19437 	-0.0419037 	1.76351e-20 9.18215 	-0.0427646 	2.52553e-20 9.14203 	-0.0435062 	4.3218e-20 9.15543 	-0.0444997 	1.58977e-19 9.14311 	-0.0453624 	1.62537e-19 9.13077 	-0.0462265 	1.6612e-19 9.1184 	-0.0470919 	1.69726e-19 9.07762 	-0.0475538 	4.35202e-20 9.09172 	-0.0487974 	2.37153e-20 9.07928 	-0.0496686 	1.66316e-20 9.06682 	-0.0505412 	9.5466e-21 9.05416 	-0.0514108 	2.59172e-21 9.01345 	-0.0515709 	1.70768e-20 9.02644 	-0.053061 	1.10475e-19 9.01534 	-0.0539774 	1.17525e-19 9.00279 	-0.054861 	1.19465e-19 8.98702 	-0.0556252 	1.07816e-19 8.94969 	-0.0555725 	4.08904e-21 8.95987 	-0.0572433 	-1.05936e-19 8.95153 	-0.0582868 	-1.35205e-19 8.9389 	-0.0591873 	-1.45949e-19 8.92075 	-0.0598053 	-1.35642e-19 8.88648 	-0.0595928 	-6.36378e-20 8.89417 	-0.0614345 	-1.88678e-19 8.88805 	-0.0626514 	-2.3104e-19 8.87538 	-0.0635734 	-2.34304e-19 8.85547 	-0.0640077 	-1.84524e-19 8.82395 	-0.0636567 	-4.9452e-20 8.82944 	-0.065627 	-2.59964e-20 8.8251 	-0.0670422 	-1.11568e-20 8.8124 	-0.0679854 	-3.64009e-21 8.79126 	-0.0682129 	0 8.7622 	-0.0677676 	0 8.76575 	-0.0698442 	0 8.7628 	-0.0714808 	0 8.75009 	-0.0724507 	0 8.72816 	-0.0724614 	2.26522e-21 8.70131 	-0.0719581 	5.74291e-21 8.70317 	-0.0741378 	2.45763e-21 8.70131 	-0.0760215 	0 8.6886 	-0.0770199 	0 8.66626 	-0.0767938 	2.75297e-21 8.64137 	-0.0762424 	6.23624e-21 8.64176 	-0.0785022 	2.95171e-21 8.64077 	-0.0806395 	6.7624e-22 8.62808 	-0.081667 	7.3723e-21 8.6056 	-0.0812014 	2.59584e-20 8.58243 	-0.0806278 	4.54013e-20 8.58158 	-0.0829633 	1.78458e-19 8.58064 	-0.0853014 	3.11517e-19 8.5679 	-0.086293 	3.12114e-19 8.54621 	-0.0856938 	1.79139e-19 8.52453 	-0.0850941 	4.61616e-20 8.5226 	-0.0874461 	2.70822e-20 8.52058 	-0.0898006 	8.00526e-21 8.50845 	-0.090778 	7.62669e-22 8.48806 	-0.0902203 	4.10046e-21 8.46768 	-0.0896623 	7.43813e-21 8.46481 	-0.0920475 	4.30923e-21 8.46186 	-0.0944353 	1.18179e-21 8.45036 	-0.0954117 	-1.37865e-22 8.43112 	-0.0949024 	-4.01963e-21 8.41188 	-0.0943928 	-7.90069e-21 8.4082 	-0.0968119 	-5.3862e-20 8.40443 	-0.0992334 	-9.98301e-20 8.39358 	-0.100206 	-1.02251e-19 8.37533 	-0.0997336 	-6.0341e-20 8.35709 	-0.0992612 	-1.84286e-20 8.35269 	-0.101679 	8.53574e-20 8.3482 	-0.104099 	1.89134e-19 8.33801 	-0.105068 	1.99529e-19 8.32063 	-0.104666 	1.12702e-19 8.30326 	-0.104264 	2.58734e-20 8.29823 	-0.106684 	1.36379e-20 8.29311 	-0.109107 	1.39664e-21 8.28357 	-0.110076 	-4.36231e-21 8.26696 	-0.109738 	6.07271e-22 8.25035 	-0.1094 	5.5774e-21 8.24473 	-0.111805 	-6.62819e-22 8.2389 	-0.114155 	-7.14461e-21 8.22961 	-0.115086 	-1.93859e-20 8.21422 	-0.114922 	-6.83074e-20 8.19829 	-0.114662 	-1.20443e-19 8.19216 	-0.11706 	-2.56227e-19 8.18531 	-0.119153 	-3.57893e-19 8.17606 	-0.120118 	-3.34286e-19 8.16235 	-0.120235 	-2.14055e-19 8.147 	-0.120039 	-5.82148e-20 8.14039 	-0.122397 	7.11599e-20 8.13272 	-0.124227 	1.48394e-19 8.1235 	-0.125242 	1.45249e-19 8.11126 	-0.125674 	9.38306e-20 8.09643 	-0.125602 	6.74442e-22 8.08939 	-0.127992 	-9.14382e-20 8.08107 	-0.129625 	-1.35386e-19 8.07182 	-0.130705 	-1.441e-19 8.06082 	-0.131428 	-1.23002e-19 8.04641 	-0.131441 	-4.29624e-20 8.03898 	-0.133872 	-3.1799e-20 8.03012 	-0.135298 	-2.07073e-20 8.02081 	-0.136419 	-9.63923e-21 8.01085 	-0.137401 	2.72489e-21 7.9968 	-0.137446 	2.3866e-20 7.98898 	-0.139834 	9.06703e-22 7.97971 	-0.141034 	-5.67666e-21 7.97034 	-0.142187 	-1.15881e-20 7.96092 	-0.14334 	-1.7501e-20 7.94754 	-0.143567 	-3.953e-21 7.93917 	-0.145756 	-1.98992e-20 7.92978 	-0.146952 	-2.63331e-20 7.92034 	-0.148149 	-3.27716e-20 7.91086 	-0.149347 	-3.92148e-20 7.8986 	-0.149875 	-5.64117e-20 7.88976 	-0.151842 	1.40783e-20 7.8803 	-0.153082 	1.52059e-20 7.87079 	-0.154323 	1.63034e-20 7.86123 	-0.155565 	1.73705e-20 7.84992 	-0.156366 	-2.6117e-20 7.84071 	-0.158124 	1.41665e-20 7.83117 	-0.1594 	1.57712e-20 7.82159 	-0.160677 	1.73482e-20 7.81196 	-0.161954 	1.88974e-20 7.80149 	-0.163014 	2.23576e-21 7.79233 	-0.164507 	-1.44292e-22 7.78301 	-0.165767 	-1.09788e-22 7.77365 	-0.167027 	-7.52951e-23 7.76423 	-0.168289 	-4.0813e-23 7.75541 	-0.169466 	-8.67185e-24 7.75494 	-0.169527 	-6.85218e-24 7.75447 	-0.169587 	-5.03248e-24 7.754 	-0.169648 	-3.21275e-24 7.75353 	-0.169709 	-1.393e-24 7.75312 	-0.169758 	0 7.74308 	-0.171103 	0 7.73301 	-0.172438 	0 7.72288 	-0.173774 	0 7.7127 	-0.175111 	0 7.70365 	-0.176202 	0 7.69309 	-0.177812 	0 7.68284 	-0.179186 	0 7.67253 	-0.180562 	0 7.66218 	-0.181938 	0 7.65405 	-0.182851 	0 7.64291 	-0.184734 	0 7.63242 	-0.186151 	0 7.62188 	-0.187569 	0 7.61129 	-0.188988 	0 7.604 	-0.189717 	0 7.5923 	-0.191862 	0 7.58155 	-0.193298 	0 7.57075 	-0.194734 	0 7.5599 	-0.196171 	0 7.5534 	-0.196681 	0 7.54126 	-0.198965 	0 7.53013 	-0.200501 	0 7.51909 	-0.201942 	0 7.50913 	-0.203144 	0 7.50233 	-0.203678 	0 7.49001 	-0.205957 	0 7.4783 	-0.207748 	-5.09734e-21 7.467 	-0.209196 	-1.37865e-20 7.45788 	-0.21017 	-2.24942e-20 7.45068 	-0.210727 	-3.12194e-20 7.43811 	-0.213006 	-2.14577e-20 7.42578 	-0.215056 	-1.41033e-20 7.41419 	-0.216505 	-1.30284e-20 7.40589 	-0.217232 	-1.99221e-20 7.39833 	-0.21779 	-2.86935e-20 7.38561 	-0.220041 	-1.88405e-20 7.37281 	-0.222293 	-8.9821e-21 7.36126 	-0.223682 	0 7.35326 	-0.224244 	0 7.34524 	-0.224807 	0 7.33224 	-0.227018 	0 7.31914 	-0.229231 	0 7.30807 	-0.23062 	-2.56753e-21 7.2997 	-0.231194 	-6.6772e-21 7.2913 	-0.231769 	-1.07864e-20 7.27805 	-0.233968 	-4.07084e-20 7.26472 	-0.236168 	-7.06273e-20 7.25409 	-0.237583 	-7.50038e-20 7.24524 	-0.238168 	-6.00177e-20 7.23636 	-0.238754 	-4.50259e-20 7.22281 	-0.240951 	-2.26916e-20 7.20918 	-0.24315 	-3.44586e-22 7.19902 	-0.244531 	-8.33375e-21 7.18962 	-0.245128 	-2.78565e-20 7.18024 	-0.245677 	-4.80617e-20 7.16634 	-0.247823 	-5.90226e-20 7.15342 	-0.249724 	-6.63946e-20 7.14292 	-0.251054 	-6.53879e-20 7.13283 	-0.251905 	-4.90772e-20 7.12304 	-0.252416 	-2.18622e-20 7.10887 	-0.254516 	-1.89699e-20 7.09673 	-0.25611 	-1.32656e-20 7.08582 	-0.257392 	-5.83369e-21 7.07501 	-0.2585 	0 7.06469 	-0.258966 	0 7.05011 	-0.261009 	0 7.03868 	-0.26228 	0 7.02738 	-0.263508 	0 7.01602 	-0.264736 	0 7.0052 	-0.265283 	0 6.99125 	-0.267033 	0 6.9796 	-0.268201 	0 6.9679 	-0.269369 	0 6.95615 	-0.270538 	0 6.94462 	-0.271351 	-5.76295e-21 6.93137 	-0.272752 	5.353e-23 6.91932 	-0.273847 	1.40259e-22 6.90722 	-0.274943 	2.27018e-22 6.89507 	-0.276039 	3.13808e-22 6.8829 	-0.277102 	5.10326e-22 6.88145 	-0.27724 	1.26724e-21 6.88011 	-0.277349 	1.05281e-21 6.87878 	-0.277458 	8.38268e-22 6.87745 	-0.277566 	6.23612e-22 6.87613 	-0.277674 	4.10079e-22 6.86479 	-0.27859 	-1.41061e-21 6.85342 	-0.279507 	-3.23956e-21 6.842 	-0.280425 	-5.0768e-21 6.83055 	-0.281343 	-6.92237e-21 6.82053 	-0.282025 	1.51037e-21 6.80685 	-0.283241 	3.77157e-21 6.79377 	-0.284181 	9.22345e-21 6.78063 	-0.285121 	1.46729e-20 6.76745 	-0.286062 	2.012e-20 6.75738 	-0.286486 	2.5778e-20 6.74263 	-0.287913 	2.01746e-20 6.72921 	-0.288742 	1.92158e-20 6.71574 	-0.289573 	1.82526e-20 6.70255 	-0.290351 	1.73102e-20 6.69357 	-0.290422 	1.66967e-20 6.67815 	-0.291848 	1.54177e-20 6.66399 	-0.292741 	1.39043e-20 6.65024 	-0.293448 	1.2306e-20 6.63853 	-0.293815 	1.23179e-20 6.62934 	-0.293765 	1.42963e-20 6.61364 	-0.295065 	1.09736e-20 6.5984 	-0.296164 	8.34103e-21 6.5844 	-0.296759 	7.43188e-21 6.57424 	-0.296724 	9.22729e-21 6.56485 	-0.296564 	1.15591e-20 6.54887 	-0.297758 	7.90287e-21 6.53283 	-0.298953 	4.24256e-21 6.51931 	-0.299385 	-6.04672e-22 6.50977 	-0.29908 	-3.3277e-21 6.50022 	-0.298776 	-6.0511e-21 6.48401 	-0.299832 	-3.7594e-21 6.46775 	-0.300889 	-1.46896e-21 6.45506 	-0.301197 	0 6.44543 	-0.300736 	0 6.4358 	-0.300276 	0 6.41942 	-0.301177 	0 6.40303 	-0.302072 	-2.29891e-23 6.39141 	-0.302153 	-2.26895e-21 6.38153 	-0.301595 	-4.52311e-21 6.37188 	-0.300959 	-6.77838e-21 6.35537 	-0.301686 	-4.88984e-21 6.34084 	-0.302073 	-3.92459e-21 6.32921 	-0.301964 	-4.29646e-21 6.31843 	-0.301559 	-3.88396e-21 6.30884 	-0.300742 	-2.38758e-21 6.2923 	-0.301291 	-2.06224e-20 6.27978 	-0.301156 	-2.31193e-20 6.26821 	-0.300858 	-2.1856e-20 6.25663 	-0.300559 	-2.05919e-20 6.24706 	-0.299601 	-6.24432e-22 6.2316 	-0.299798 	-1.76423e-20 6.22016 	-0.299303 	-1.67038e-20 6.20873 	-0.298809 	-1.57652e-20 6.19729 	-0.298314 	-1.48263e-20 6.18688 	-0.29749 	-6.66055e-21 6.17359 	-0.297148 	-5.6531e-21 6.16236 	-0.296456 	-2.28222e-21 6.15113 	-0.295763 	1.08867e-21 6.1399 	-0.295071 	4.45957e-21 6.12869 	-0.294376 	7.83511e-21 6.12859 	-0.294372 	7.82887e-21 6.12851 	-0.294366 	7.84267e-21 6.12843 	-0.294359 	7.85648e-21 6.12835 	-0.294353 	7.87029e-21 6.12826 	-0.294346 	7.8841e-21 6.11708 	-0.293487 	1.00352e-20 6.10591 	-0.292627 	1.21856e-20 6.09474 	-0.291767 	1.43353e-20 6.08359 	-0.290908 	1.64841e-20 6.07388 	-0.289722 	1.1309e-20 6.06247 	-0.288945 	1.12193e-20 6.05154 	-0.287886 	9.25663e-21 6.04064 	-0.286826 	7.29471e-21 6.02974 	-0.285766 	5.33353e-21 6.0218 	-0.284051 	3.57516e-21 6.01027 	-0.283349 	4.44788e-21 5.99976 	-0.282098 	2.85669e-21 5.98927 	-0.280847 	1.26583e-21 5.97955 	-0.279429 	5.33256e-22 5.97278 	-0.277366 	3.14462e-21 5.96165 	-0.276482 	9.41907e-22 5.95116 	-0.27528 	6.06592e-22 5.94116 	-0.273841 	1.66651e-21 5.93337 	-0.27192 	5.78184e-21 5.92712 	-0.269672 	1.19725e-20 5.91651 	-0.268585 	1.56483e-20 5.90605 	-0.267437 	1.90838e-20 5.89661 	-0.265822 	2.06631e-20 5.89078 	-0.263435 	1.61618e-20 5.88509 	-0.261031 	1.15259e-20 5.87508 	-0.259761 	1.55166e-20 5.86508 	-0.258491 	1.95074e-20 5.85716 	-0.256621 	1.93139e-20 5.85202 	-0.254094 	1.48477e-20 5.84693 	-0.251567 	1.03818e-20 5.83756 	-0.250141 	1.42383e-20 5.82822 	-0.248715 	1.80948e-20 5.82175 	-0.246657 	1.74009e-20 5.81724 	-0.24404 	1.07692e-20 5.81279 	-0.241423 	4.13579e-21 5.80411 	-0.239871 	3.18272e-21 5.79571 	-0.238271 	2.16618e-21 5.7906 	-0.23603 	2.99017e-22 5.78654 	-0.233426 	-2.79139e-21 5.78274 	-0.230753 	-6.11712e-21 5.77478 	-0.229102 	-2.27496e-21 5.76826 	-0.227188 	-6.75624e-22 5.7638 	-0.224892 	-2.33213e-21 5.75994 	-0.222416 	-5.06101e-21 5.75679 	-0.219723 	-9.07465e-21 5.74958 	-0.218007 	1.63616e-21 5.74483 	-0.215856 	4.02011e-21 5.74102 	-0.213546 	3.37229e-21 5.73738 	-0.211204 	1.96276e-21 5.73487 	-0.20854 	-7.02895e-21 5.72855 	-0.206779 	-4.75745e-21 5.72532 	-0.204502 	-3.29448e-21 5.72215 	-0.202226 	-1.83038e-21 5.71904 	-0.19995 	-3.65139e-22 5.71686 	-0.19744 	0 5.71219 	-0.195563 	0 5.70958 	-0.193365 	0 5.70704 	-0.191168 	0 5.70454 	-0.188972 	0 5.7026 	-0.18666 	0 5.69943 	-0.184749 	2.55538e-23 5.69742 	-0.182676 	6.69968e-23 5.69547 	-0.180603 	1.08414e-22 5.69357 	-0.178531 	1.49805e-22 5.69187 	-0.176429 	1.09731e-22 5.69084 	-0.175579 	2.61321e-22 5.69015 	-0.174684 	-5.08371e-22 5.68947 	-0.17379 	-1.27716e-21 5.6888 	-0.172896 	-2.04503e-21 5.68811 	-0.171953 	-2.85359e-21 5.68747 	-0.170951 	-3.63056e-21 5.68684 	-0.169949 	-4.40688e-21 5.68622 	-0.168947 	-5.18256e-21 5.68561 	-0.167946 	-5.9576e-21 5.68512 	-0.166901 	-5.82192e-21 5.68437 	-0.165231 	-6.6181e-21 5.68359 	-0.163537 	-5.84508e-21 5.68286 	-0.161844 	-5.0672e-21 5.68216 	-0.160153 	-4.28447e-21 5.68174 	-0.158358 	7.64956e-22 5.68159 	-0.156985 	4.74132e-21 5.68127 	-0.155559 	6.47449e-21 5.68098 	-0.154133 	8.20366e-21 5.68072 	-0.152708 	9.92882e-21 5.6808 	-0.151152 	3.93336e-21 5.6812 	-0.150109 	9.31539e-22 5.68127 	-0.149007 	-1.72647e-21 5.68136 	-0.147907 	-4.38273e-21 5.68148 	-0.146807 	-7.03726e-21 5.68194 	-0.145577 	-9.76856e-21 5.68283 	-0.144908 	-1.60167e-20 5.68321 	-0.144198 	-1.65679e-20 5.68362 	-0.143489 	-1.71162e-20 5.68404 	-0.14278 	-1.76617e-20 5.68474 	-0.141968 	-7.87714e-21 5.68604 	-0.141719 	-3.65818e-21 5.68671 	-0.14146 	-1.1747e-21 5.68736 	-0.1412 	1.23452e-21 5.68804 	-0.14093 	3.46045e-21 5.68887 	-0.140606 	4.67447e-21 5.6904 	-0.140813 	1.31592e-20 5.6914 	-0.141023 	1.54826e-20 5.69224 	-0.141234 	1.57892e-20 5.69309 	-0.141428 	1.30504e-20 5.69397 	-0.141592 	4.46307e-21 5.69569 	-0.142252 	3.15907e-21 5.69699 	-0.142929 	1.87094e-21 5.69794 	-0.143618 	5.95859e-22 5.69887 	-0.1443 	-1.37124e-21 5.69975 	-0.144975 	-3.94554e-21 5.70159 	-0.146114 	-1.57062e-21 5.70313 	-0.147275 	0 5.70415 	-0.148479 	0 5.70503 	-0.149704 	-1.89071e-21 5.70584 	-0.150936 	-4.49003e-21 5.70771 	-0.152606 	-2.10129e-21 5.70945 	-0.154285 	1.46049e-22 5.71044 	-0.156033 	1.36404e-21 5.71116 	-0.157834 	5.09281e-21 5.71182 	-0.159637 	9.00969e-21 5.71365 	-0.161854 	1.54753e-20 5.71543 	-0.16407 	2.19419e-20 5.71635 	-0.166373 	2.21061e-20 5.71684 	-0.16875 	1.64177e-20 5.71727 	-0.171125 	1.07303e-20 5.71897 	-0.173894 	1.14908e-20 5.72061 	-0.176661 	1.22531e-20 5.72146 	-0.179522 	9.74546e-21 5.72164 	-0.182475 	3.93416e-21 5.72176 	-0.185426 	-1.87601e-21 5.72325 	-0.188755 	-1.1723e-20 5.72466 	-0.192081 	-2.15676e-20 5.72535 	-0.195508 	-2.32126e-20 5.72515 	-0.199039 	-1.53244e-20 5.72488 	-0.202568 	-7.43794e-21 5.72607 	-0.20646 	6.04252e-21 5.72717 	-0.210349 	1.95192e-20 5.72761 	-0