# vtk DataFile Version 2.0
track0
ASCII
DATASET POLYDATA
POINTS 12075 float
-0.0205 0.001 1e-05
-0.02052 0.000999985 1e-05
-0.02054 0.000999974 1e-05
-0.02056 0.000999965 1e-05
-0.02058 0.000999959 1e-05
-0.0206 0.000999956 1e-05
-0.0205 0.00367778 1e-05
-0.02052 0.00367778 1e-05
-0.02054 0.00367777 1e-05
-0.02056 0.00367777 1e-05
-0.02058 0.00367777 1e-05
-0.0206 0.00367777 1e-05
-0.0205 0.00635556 1e-05
-0.02052 0.00635555 1e-05
-0.02054 0.00635555 1e-05
-0.02056 0.00635555 1e-05
-0.02058 0.00635555 1e-05
-0.0206 0.00635555 1e-05
-0.0205 0.00903333 1e-05
-0.02052 0.00903333 1e-05
-0.02054 0.00903333 1e-05
-0.02056 0.00903333 1e-05
-0.02058 0.00903333 1e-05
-0.0206 0.00903333 1e-05
-0.0205 0.0117111 1e-05
-0.02052 0.0117111 1e-05
-0.02054 0.0117111 1e-05
-0.02056 0.0117111 1e-05
-0.02058 0.0117111 1e-05
-0.0206 0.0117111 1e-05
-0.0205 0.0143889 1e-05
-0.02052 0.0143889 1e-05
-0.02054 0.0143889 1e-05
-0.02056 0.0143889 1e-05
-0.02058 0.0143889 1e-05
-0.0206 0.0143889 1e-05
-0.0205 0.0170667 1e-05
-0.02052 0.0170667 1e-05
-0.02054 0.0170667 1e-05
-0.02056 0.0170667 1e-05
-0.02058 0.0170667 1e-05
-0.0206 0.0170667 1e-05
-0.0205 0.0197444 1e-05
-0.02052 0.0197444 1e-05
-0.02054 0.0197444 1e-05
-0.02056 0.0197444 1e-05
-0.02058 0.0197444 1e-05
-0.0206 0.0197444 1e-05
-0.0205 0.0224222 1e-05
-0.02052 0.0224222 1e-05
-0.02054 0.0224222 1e-05
-0.02056 0.0224222 1e-05
-0.02058 0.0224222 1e-05
-0.0206 0.0224222 1e-05
-0.0205 0.0251 1e-05
-0.02052 0.0250998 1e-05
-0.02054 0.0250997 1e-05
-0.02056 0.0250995 1e-05
-0.02058 0.0250995 1e-05
-0.0206 0.0250994 1e-05
-0.0205 0.001 1e-05
-0.0202034 0.00100022 1e-05
-0.0199069 0.00100067 1e-05
-0.0196103 0.00100132 1e-05
-0.0193137 0.00100219 1e-05
-0.0190172 0.00100326 1e-05
-0.0187132 0.00100467 1e-05
-0.0184093 0.00100589 1e-05
-0.0181054 0.0010071 1e-05
-0.0178015 0.00100832 1e-05
-0.0174976 0.00100954 1e-05
-0.0172058 0.00101083 1e-05
-0.016914 0.00101194 1e-05
-0.0166222 0.00101304 1e-05
-0.0163305 0.00101414 1e-05
-0.0160387 0.00101524 1e-05
-0.0157586 0.00101638 1e-05
-0.0154784 0.00101746 1e-05
-0.0151983 0.00101858 1e-05
-0.0149182 0.00101973 1e-05
-0.0146381 0.00102092 1e-05
-0.014376 0.0010221 1e-05
-0.0141139 0.00102328 1e-05
-0.0138518 0.0010245 1e-05
-0.0135897 0.00102574 1e-05
-0.0133685 0.00102682 1e-05
-0.0133535 0.00102689 1e-05
-0.0133385 0.00102697 1e-05
-0.0133235 0.00102704 1e-05
-0.0133085 0.00102712 1e-05
-0.0132934 0.00102719 1e-05
-0.0130353 0.00102848 1e-05
-0.0127771 0.00102979 1e-05
-0.0125189 0.00103111 1e-05
-0.0122607 0.00103245 1e-05
-0.0120025 0.00103381 1e-05
-0.0117547 0.00103512 1e-05
-0.0115068 0.00103644 1e-05
-0.0112589 0.00103777 1e-05
-0.0110111 0.0010391 1e-05
-0.0107632 0.00104043 1e-05
-0.0105252 0.00104172 1e-05
-0.0102873 0.001043 1e-05
-0.0100493 0.00104429 1e-05
-0.00981133 0.00104557 1e-05
-0.00957337 0.00104686 1e-05
-0.00934491 0.00104809 1e-05
-0.00911645 0.00104932 1e-05
-0.00888799 0.00105055 1e-05
-0.00865954 0.00105178 1e-05
-0.00843108 0.001053 1e-05
-0.00821175 0.00105417 1e-05
-0.00799242 0.00105534 1e-05
-0.00777309 0.00105651 1e-05
-0.00755376 0.00105767 1e-05
-0.00733443 0.00105883 1e-05
-0.00712387 0.00105994 1e-05
-0.0069133 0.00106104 1e-05
-0.00670273 0.00106215 1e-05
-0.00649216 0.00106325 1e-05
-0.0062816 0.00106435 1e-05
-0.00607944 0.00106539 1e-05
-0.00587729 0.00106644 1e-05
-0.00567514 0.00106749 1e-05
-0.00547298 0.00106853 1e-05
-0.00527083 0.00106958 1e-05
-0.00507675 0.00107057 1e-05
-0.00488267 0.00107156 1e-05
-0.0046886 0.00107256 1e-05
-0.00449452 0.00107355 1e-05
-0.00430044 0.00107455 1e-05
-0.00411412 0.0010755 1e-05
-0.0039278 0.00107645 1e-05
-0.00374147 0.0010774 1e-05
-0.00355515 0.00107836 1e-05
-0.00336883 0.00107932 1e-05
-0.00318995 0.00108023 1e-05
-0.00301107 0.00108116 1e-05
-0.00283219 0.00108208 1e-05
-0.00265331 0.00108302 1e-05
-0.00247443 0.00108396 1e-05
-0.0023027 0.00108486 1e-05
-0.00213097 0.00108578 1e-05
-0.00195924 0.00108671 1e-05
-0.00178751 0.00108765 1e-05
-0.00161577 0.00108859 1e-05
-0.0014509 0.00108951 1e-05
-0.00128603 0.00109044 1e-05
-0.00112116 0.0010914 1e-05
-0.00095629 0.00109238 1e-05
-0.000791418 0.00109339 1e-05
-0.000633135 0.00109438 1e-05
-0.000474851 0.00109539 1e-05
-0.000316568 0.00109644 1e-05
-0.000158285 0.00109752 1e-05
0 0.00109863 1e-05
0.000105677 0.00109938 1e-05
0.000211355 0.00110015 1e-05
0.000317032 0.00110092 1e-05
0.000422709 0.0011017 1e-05
0.000528387 0.00110249 1e-05
0.000634886 0.00110328 1e-05
0.000741385 0.00110406 1e-05
0.000847885 0.00110484 1e-05
0.000954384 0.00110561 1e-05
0.00106088 0.00110637 1e-05
0.00116821 0.00110712 1e-05
0.00127554 0.00110786 1e-05
0.00138286 0.00110859 1e-05
0.00149019 0.0011093 1e-05
0.00159752 0.00110999 1e-05
0.00170568 0.00111067 1e-05
0.00181384 0.00111134 1e-05
0.001922 0.00111199 1e-05
0.00203016 0.00111263 1e-05
0.00213833 0.00111324 1e-05
0.00224733 0.00111384 1e-05
0.00235633 0.00111444 1e-05
0.00246533 0.00111502 1e-05
0.00257434 0.00111558 1e-05
0.00268334 0.00111612 1e-05
0.00279319 0.00111665 1e-05
0.00290304 0.00111717 1e-05
0.00301289 0.00111768 1e-05
0.00312274 0.00111817 1e-05
0.00323259 0.00111865 1e-05
0.00334329 0.00111911 1e-05
0.003454 0.00111956 1e-05
0.0035647 0.00112 1e-05
0.0036754 0.00112042 1e-05
0.00378611 0.00112083 1e-05
0.00389767 0.00112122 1e-05
0.00400924 0.00112161 1e-05
0.0041208 0.00112198 1e-05
0.00423237 0.00112234 1e-05
0.00434393 0.00112268 1e-05
0.00445636 0.001123 1e-05
0.00456879 0.00112332 1e-05
0.00468123 0.00112363 1e-05
0.00479366 0.00112392 1e-05
0.00490609 0.00112419 1e-05
0.0050194 0.00112445 1e-05
0.0051327 0.0011247 1e-05
0.00524601 0.00112494 1e-05
0.00535932 0.00112516 1e-05
0.00547262 0.00112538 1e-05
0.00558681 0.00112557 1e-05
0.005701 0.00112576 1e-05
0.00581518 0.00112593 1e-05
0.00592937 0.00112609 1e-05
0.00604356 0.00112624 1e-05
0.00615863 0.00112637 1e-05
0.00627371 0.0011265 1e-05
0.00638878 0.00112661 1e-05
0.00650386 0.00112671 1e-05
0.00661893 0.0011268 1e-05
0.0067349 0.00112687 1e-05
0.00685087 0.00112694 1e-05
0.00696684 0.00112699 1e-05
0.00708281 0.00112703 1e-05
0.00719878 0.00112706 1e-05
0.00731565 0.00112707 1e-05
0.00743252 0.00112708 1e-05
0.00754939 0.00112707 1e-05
0.00766626 0.00112705 1e-05
0.00778313 0.00112703 1e-05
0.00790091 0.00112698 1e-05
0.00801869 0.00112693 1e-05
0.00813647 0.00112686 1e-05
0.00825425 0.00112679 1e-05
0.00837203 0.0011267 1e-05
0.00843664 0.00112664 1e-05
0.00850125 0.00112659 1e-05
0.00856585 0.00112653 1e-05
0.00863046 0.00112646 1e-05
0.00869264 0.0011264 1e-05
0.00874722 0.00112634 1e-05
0.00880179 0.00112627 1e-05
0.00885636 0.00112621 1e-05
0.00891094 0.00112614 1e-05
0.00896551 0.00112607 1e-05
0.00908513 0.00112591 1e-05
0.00920475 0.00112574 1e-05
0.00932437 0.00112556 1e-05
0.00944398 0.00112537 1e-05
0.0095636 0.00112516 1e-05
0.00968415 0.00112494 1e-05
0.0098047 0.00112471 1e-05
0.00992525 0.00112447 1e-05
0.0100458 0.00112422 1e-05
0.0101663 0.00112395 1e-05
0.0102878 0.00112367 1e-05
0.0104093 0.00112338 1e-05
0.0105308 0.00112307 1e-05
0.0106523 0.00112276 1e-05
0.0107738 0.00112243 1e-05
0.0108962 0.00112209 1e-05
0.0110186 0.00112173 1e-05
0.0111411 0.00112137 1e-05
0.0112635 0.00112099 1e-05
0.0113859 0.00112061 1e-05
0.0115093 0.0011202 1e-05
0.0116327 0.00111978 1e-05
0.0117561 0.00111935 1e-05
0.0118795 0.00111891 1e-05
0.0120028 0.00111846 1e-05
0.0121272 0.00111799 1e-05
0.0122515 0.00111751 1e-05
0.0123759 0.00111702 1e-05
0.0125002 0.00111651 1e-05
0.0126245 0.001116 1e-05
0.0127498 0.00111546 1e-05
0.0128752 0.00111491 1e-05
0.0130005 0.00111436 1e-05
0.0131258 0.00111378 1e-05
0.0132511 0.0011132 1e-05
0.0133774 0.0011126 1e-05
0.0135036 0.00111199 1e-05
0.0136299 0.00111136 1e-05
0.0137562 0.00111072 1e-05
0.0138825 0.00111007 1e-05
0.0140098 0.0011094 1e-05
0.014137 0.00110872 1e-05
0.0142643 0.00110802 1e-05
0.0143915 0.00110731 1e-05
0.0145188 0.00110659 1e-05
0.0146471 0.00110586 1e-05
0.0147753 0.0011051 1e-05
0.0149036 0.00110433 1e-05
0.0150318 0.00110355 1e-05
0.0151601 0.00110276 1e-05
0.0152893 0.00110196 1e-05
0.0154186 0.00110113 1e-05
0.0155478 0.00110029 1e-05
0.0156771 0.00109943 1e-05
0.0158063 0.00109857 1e-05
0.0159366 0.00109769 1e-05
0.0160668 0.00109679 1e-05
0.0161971 0.00109588 1e-05
0.0163273 0.00109494 1e-05
0.0164576 0.001094 1e-05
0.0165889 0.00109305 1e-05
0.0167201 0.00109208 1e-05
0.0168514 0.00109108 1e-05
0.0169827 0.00109007 1e-05
0.0171139 0.00108905 1e-05
0.0172462 0.00108803 1e-05
0.0173785 0.00108697 1e-05
0.0175108 0.00108589 1e-05
0.0176431 0.0010848 1e-05
0.0177754 0.0010837 1e-05
0.0179087 0.0010826 1e-05
0.018042 0.00108146 1e-05
0.0181753 0.0010803 1e-05
0.0183087 0.00107911 1e-05
0.018442 0.00107793 1e-05
0.0185763 0.00107675 1e-05
0.0187107 0.00107553 1e-05
0.018845 0.00107427 1e-05
0.0189794 0.001073 1e-05
0.0191137 0.00107173 1e-05
0.0192491 0.00107046 1e-05
0.0193845 0.00106915 1e-05
0.0195199 0.00106781 1e-05
0.0196553 0.00106644 1e-05
0.0197907 0.00106509 1e-05
0.0199272 0.00106372 1e-05
0.0200636 0.00106232 1e-05
0.0202001 0.00106089 1e-05
0.0203365 0.00105943 1e-05
0.020473 0.00105798 1e-05
0.0206105 0.00105652 1e-05
0.020748 0.00105503 1e-05
0.0208855 0.00105349 1e-05
0.021023 0.00105194 1e-05
0.0211606 0.00105039 1e-05
0.0212991 0.00104884 1e-05
0.0214377 0.00104724 1e-05
0.0215763 0.00104561 1e-05
0.0217149 0.00104395 1e-05
0.0218535 0.0010423 1e-05
0.0219931 0.00104064 1e-05
0.0221328 0.00103894 1e-05
0.0222724 0.0010372 1e-05
0.0224121 0.00103544 1e-05
0.0225517 0.00103368 1e-05
0.0226925 0.00103192 1e-05
0.0228332 0.00103011 1e-05
0.022974 0.00102826 1e-05
0.0231147 0.00102639 1e-05
0.0232555 0.00102452 1e-05
0.0233973 0.00102264 1e-05
0.0235391 0.00102071 1e-05
0.023681 0.00101875 1e-05
0.0238228 0.00101676 1e-05
0.0239647 0.00101478 1e-05
0.0241076 0.00101278 1e-05
0.0242505 0.00101074 1e-05
0.0243935 0.00100866 1e-05
0.0245364 0.00100656 1e-05
0.0246794 0.00100445 1e-05
0.0248234 0.00100233 1e-05
0.0249675 0.00100016 1e-05
0.0251115 0.000997963 1e-05
0.0252556 0.000995742 1e-05
[...]
POINT_DATA 12075
 FIELD attributes 2
p 1 12075 float
-5.65409 -5.65077 -5.64745 -5.64414 -5.64083 -5.63751
-5.80706 -5.80704 -5.80701 -5.80699 -5.80697 -5.80695
-5.98245 -5.98233 -5.9822 -5.98208 -5.98196 -5.98185
-6.07743 -6.07738 -6.07733 -6.07727 -6.07722 -6.07717
-6.12425 -6.12414 -6.12402 -6.12391 -6.1238 -6.12368
-6.13236 -6.1322 -6.13204 -6.13187 -6.13171 -6.13155
-6.10675 -6.10668 -6.10661 -6.10654 -6.10647 -6.10639
-6.03815 -6.03811 -6.03806 -6.03802 -6.03798 -6.03794
-5.91744 -5.91744 -5.91745 -5.91746 -5.91746 -5.91747
-3.70503 -3.72437 -3.74357 -3.76264 -3.78157 -3.80037
-5.65409 -5.65335 -5.64971 -5.64599 -5.64219 -5.63378 -5.64755 -5.66243 -5.67731 -5.69218 -5.7165 -5.73811 -5.76788 -5.79765 -5.82742 -5.85999 -5.87545 -5.89693 -5.91842 -5.93991 -5.96301 -5.98153 -6.00204 -6.02256 -6.04308 -6.06041 -6.06158 -6.06275 -6.06392 -6.06509 -6.06626 -6.08755 -6.10884 -6.13013 -6.15143 -6.17244 -6.19074 -6.20883 -6.22693 -6.24503 -6.26255 -6.27759 -6.29233 -6.30708 -6.32182 -6.336 -6.34903 -6.36178 -6.37453 -6.38728 -6.39956 -6.41132 -6.42276 -6.43421 -6.44566 -6.45665 -6.46723 -6.47744 -6.48764 -6.49784 -6.50757 -6.51697 -6.52595 -6.53494 -6.54393 -6.5525 -6.56078 -6.56855 -6.57633 -6.5841 -6.59149 -6.59864 -6.60527 -6.61189 -6.61852 -6.62499 -6.63114 -6.63637 -6.6416 -6.64683 -6.65203 -6.65741 -6.66263 -6.66785 -6.67307 -6.67963 -6.68682 -6.69271 -6.6986 -6.70449 -6.71189 -6.72316 -6.73982 -6.75648 -6.77315 -6.7952 -6.81924 -6.85069 -6.88215 -6.91361 -6.94486 -6.97469 -7.00629 -7.0379 -7.0695 -7.09659 -7.11733 -7.13723 -7.15712 -7.17702 -7.19519 -7.20877 -7.22131 -7.23386 -7.24641 -7.2587 -7.26965 -7.27907 -7.28848 -7.2979 -7.30642 -7.31566 -7.3232 -7.33074 -7.33828 -7.3444 -7.35169 -7.35738 -7.36307 -7.36876 -7.37304 -7.37815 -7.38196 -7.38577 -7.38959 -7.39244 -7.39571 -7.398 -7.40028 -7.40256 -7.40433 -7.40635 -7.40759 -7.40883 -7.41007 -7.41109 -7.41251 -7.41332 -7.41414 -7.41496 -7.41564 -7.4169 -7.41767 -7.41845 -7.41923 -7.41983 -7.42098 -7.42172 -7.42246 -7.4232 -7.42376 -7.42467 -7.42529 -7.4259 -7.42652 -7.42702 -7.42783 -7.42848 -7.42913 -7.42979 -7.4304 -7.43099 -7.43153 -7.43207 -7.43262 -7.43314 -7.4336 -7.43405 -7.43451 -7.43496 -7.43561 -7.43687 -7.43831 -7.43976 -7.44121 -7.44326 -7.44452 -7.44633 -7.44815 -7.44996 -7.45278 -7.45398 -7.45609 -7.4582 -7.46031 -7.46379 -7.46497 -7.46738 -7.4698 -7.47221 -7.47631 -7.47757 -7.48031 -7.48306 -7.4858 -7.4905 -7.49194 -7.49506 -7.49818 -7.50129 -7.50654 -7.50829 -7.51181 -7.51533 -7.51885 -7.5246 -7.52675 -7.53067 -7.53459 -7.53852 -7.54467 -7.54726 -7.55155 -7.55585 -7.56015 -7.56657 -7.56971 -7.57424 -7.57886 -7.5837 -7.59007 -7.5938 -7.59847 -7.60335 -7.6086 -7.61491 -7.61915 -7.62397 -7.62905 -7.63458 -7.64083 -7.6455 -7.6505 -7.65576 -7.66151 -7.66772 -7.67278 -7.678 -7.68346 -7.68939 -7.69557 -7.70097 -7.70643 -7.71205 -7.71802 -7.72409 -7.72968 -7.73528 -7.74094 -7.74682 -7.75272 -7.75835 -7.76398 -7.76962 -7.77539 -7.78115 -7.78678 -7.79241 -7.798 -7.80364 -7.80928 -7.81483 -7.82039 -7.82589 -7.83135 -7.83682 -7.84222 -7.84763 -7.85296 -7.85821 -7.86345 -7.86862 -7.87379 -7.87889 -7.88388 -7.88886 -7.89373 -7.8986 -7.90342 -7.9081 -7.91277 -7.91729 -7.92182 -7.92629 -7.93062 -7.93494 -7.93905 -7.94316 -7.94722 -7.95118 -7.95509 -7.95876 -7.96241 -7.96601 -7.96952 -7.97297 -7.97614 -7.97927 -7.98237 -7.98541 -7.98836 -7.99104 -7.99364 -7.99621 -7.99875 -8.0011 -8.00327 -8.00526 -8.00724 -8.00922 -8.01089 -8.0124 -8.0137 -8.01501 -8.01632 -8.01732 -8.01804 -8.01861 -8.01918 -8.01975 -8.02011 -8.02001 -8.0198 -8.0196 -8.0194 -8.01911 -8.01821 -8.01727 -8.01632 -8.01538 -8.0145 -8.01446 -8.01442 -8.01438 -8.01434 -8.01429 -8.01252 -8.01074 -8.00897 -8.0072 -8.00533 -8.00272 -7.99999 -7.99726 -7.99454 -7.99162 -7.98819 -7.98452 -7.98085 -7.97719 -7.97328 -7.96904 -7.96447 -7.95989 -7.95533 -7.95046 -7.94538 -7.93997 -7.93452 -7.929 -7.92329 -7.91737 -7.91123 -7.90492 -7.89848 -7.8919 -7.88515 -7.87829 -7.87115 -7.86376 -7.85631 -7.84873 -7.84116 -7.83311 -7.82465 -7.8162 -7.80766 -7.79912 -7.79003 -7.78041 -7.77079 -7.76108 -7.75138 -7.74124 -7.73061 -7.71998 -7.70916 -7.69836 -7.68724 -7.6758 -7.66434 -7.65253 -7.64067 -7.62867 -7.61656 -7.60438 -7.59165 -7.5789 -7.56615 -7.55341 -7.54068 -7.5272 -7.5138 -7.50041 -7.48702 -7.47376 -7.45963 -7.44569 -7.43177 -7.41784 -7.40407 -7.38954 -7.37515 -7.36076 -7.34637 -7.33201 -7.3304 -7.32881 -7.32722 -7.32563 -7.32405 -7.31089 -7.29772 -7.28457 -7.27142 -7.25834 -7.24316 -7.22812 -7.21309 -7.19806 -7.1833 -7.16773 -7.15255 -7.13737 -7.12223 -7.10756 -7.09177 -7.07641 -7.0612 -7.04627 -7.0317 -7.0159 -7.00029 -6.98516 -6.97065 -6.95626 -6.94053 -6.92482 -6.91001 -6.8961 -6.88219 -6.86683 -6.85147 -6.83717 -6.82396 -6.81074 -6.79597 -6.78122 -6.76776 -6.75527 -6.7429 -6.72891 -6.7155 -6.70295 -6.69089 -6.67953 -6.66648 -6.65469 -6.6432 -6.63171 -6.62144 -6.60984 -6.59956 -6.58929 -6.57901 -6.56939 -6.55977 -6.55082 -6.54188 -6.53294 -6.524 -6.52394 -6.52388 -6.52383 -6.52377 -6.52371 -6.51622 -6.50873 -6.50123 -6.49374 -6.48703 -6.48033 -6.47444 -6.46854 -6.46264 -6.4584 -6.45266 -6.4486 -6.44453 -6.44089 -6.43891 -6.43497 -6.43207 -6.42995 -6.42907 -6.42903 -6.42706 -6.42529 -6.42516 -6.42703 -6.42894 -6.42898 -6.42901 -6.43096 -6.4348 -6.43863 -6.44068 -6.44272 -6.44654 -6.45227 -6.45799 -6.46204 -6.4662 -6.47198 -6.47928 -6.48685 -6.49288 -6.49954 -6.50714 -6.51553 -6.52487 -6.53285 -6.54181 -6.55113 -6.56059 -6.57152 -6.5813 -6.59223 -6.60314 -6.61403 -6.62611 -6.63781 -6.65016 -6.66249 -6.67482 -6.68777 -6.7011 -6.71471 -6.72831 -6.74189 -6.75565 -6.7625 -6.7694 -6.7763 -6.7832 -6.79047 -6.79813 -6.80578 -6.81344 -6.82109 -6.82879 -6.84409 -6.85954 -6.87499 -6.89042 -6.90593 -6.92158 -6.93759 -6.9536 -6.96961 -6.98556 -7.00133 -7.01757 -7.03382 -7.05005 -7.06604 -7.0817 -7.09781 -7.11392 -7.13003 -7.14555 -7.16083 -7.17641 -7.19201 -7.20748 -7.22227 -7.23694 -7.25167 -7.26641 -7.28079 -7.29448 -7.30818 -7.32182 -7.33541 -7.34834 -7.3607 -7.37318 -7.38556 -7.39771 -7.40881 -7.41951 -7.43044 -7.4413 -7.45172 -7.46061 -7.46939 -7.47849 -7.48759 -7.49576 -7.50222 -7.5087 -7.51557 -7.52245 -7.52794 -7.53178 -7.53561 -7.53994 -7.54427 -7.54669 -7.54745 -7.54821 -7.54955 -7.55088 -7.54985 -7.5472 -7.54455 -7.54255 -7.53999 -7.53516 -7.52915 -7.52264 -7.51684 -7.50944 -7.50059 -7.49117 -7.48042 -7.47045 -7.45755 -7.44428 -7.43101 -7.41591 -7.40033 -7.38225 -7.36416 -7.34606 -7.32717 -7.31411 -7.3 -7.28588 -7.27177 -7.25952 -7.25017 -7.24081 -7.23146 -7.22211 -7.21204 -7.18435 -7.15604 -7.12774 -7.09945 -7.06839 -7.03666 -7.00246 -6.96827 -6.93307 -6.8947 -6.85719 -6.81857 -6.77813 -6.73406 -6.68922 -6.64526 -6.6013 -6.55356 -6.50198 -6.45033 -6.39957 -6.34802 -6.29257 -6.23536 -6.17668 -6.11889 -6.0567 -5.99404 -5.93138 -5.86719 -5.84333 -5.81799 -5.79265 -5.76731 -5.74364 -5.6995 -5.65536 -5.61123 -5.56711 -5.52015 -5.4468 -5.37077 -5.29477 -5.21665 -5.13521 -5.05496 -4.9747 -4.89022 -4.80146 -4.71244 -4.62456 -4.53505 -4.44192 -4.34841 -4.25186 -4.19316 -4.13144 -4.06954 -4.00763 -3.95173 -3.9125 -3.87326 -3.83404 -3.79465 -3.75321 -3.64945 -3.54346 -3.43749 -3.32873 -3.21704 -3.10678 -2.99654 -2.88246 -2.76444 -2.64587 -2.5434 -2.43775 -2.33112 -2.2245 -2.13097 -2.11321 -2.09546 -2.07771 -2.05977 -2.04128 -1.91596 -1.7898 -1.66369 -1.53549 -1.40415 -1.27434 -1.14457 -1.01154 -0.876183 -0.739588 -0.663548 -0.586358 -0.50836 -0.430376 -0.357959 -0.296815 -0.235685 -0.174569 -0.112799 -0.0498906 0.0899447 0.230449 0.371837 0.515884 0.660993 0.795217 0.930416 1.06665 1.20283 1.32442 1.33697 1.34952 1.36208 1.37473 1.38749 1.53453 1.68176 1.82891 1.97702 2.12684 2.27521 2.42371 2.57263 2.72146 2.87173 2.87769 2.88365 2.88961 2.89557 2.90151 3.04499 3.18839 3.33171 3.4749 3.61932 3.76841 3.91718 4.06522 4.21316 4.36251 4.36312 4.36373 4.36433 4.36493 4.36554 4.51256 4.6595 4.80634 4.95202 5.09861 5.22527 5.35141 5.47603 5.60057 5.71711 5.73809 5.75907 5.78005 5.80081 5.82153 5.96431 6.10657 6.24869 6.38822 6.52893 6.61834 6.70734 6.79467 6.88197 6.96614 7.01657 7.06698 7.11738 7.16688 7.21625 7.35133 7.48633 7.61911 7.7496 7.88092 7.93129 7.9814 8.03017 8.07894 8.12709 8.20683 8.28655 8.36627 8.4436 8.52081 8.64611 8.77111 8.89163 9.01214 9.13286 9.13496 9.13705 9.13906 9.14108 9.14309 9.25951 9.37593 9.49235 9.60446 9.71615 9.78622 9.85607 9.9231 9.99014 10.0577 10.1006 10.1434 10.1863 10.2274 10.2684 10.3755 10.4827 10.5868 10.6884 10.7893 10.8125 10.8356 10.8577 10.8797 10.902 10.9789 11.0558 11.1327 11.2064 11.2792 11.3626 11.4455 11.5248 11.6042 11.6884 11.6984 11.7083 11.7183 11.7278 11.7373 11.8253 11.9127 12 12.0831 12.1653 12.2189 12.272 12.3229 12.3739 12.4282 12.4556 12.483 12.5105 12.5369 12.5629 12.6391 12.7153 12.7894 12.861 12.9317 12.9741 13.0158 13.0561 13.0964 13.14 13.1669 13.1938 13.2207 13.2468 13.2723 13.3373 13.402 13.4654 13.5263 13.5865 13.6365 13.6853 13.7328 13.7803 13.8346 13.8427 13.8507 13.8588 13.8668 13.8745 13.9287 13.9825 14.0363 14.0885 14.1393 14.1892 14.2391 14.2868 14.3339 14.3803 14.4078 14.4345 14.4607 14.487 14.5164 14.5333 14.5501 14.567 14.5837 14.5997 14.6408 14.6813 14.7218 14.7612 14.7997 14.837 14.8742 14.9102 14.9453 14.9802 15.0139 15.0465 15.0787 15.111 15.1428 15.1525 15.1619 15.1713 15.1807 15.1908 15.2108 15.2307 15.2507 15.2707 15.2899 15.3169 15.3437 15.3704 15.3967 15.4224 15.4466 15.4708 15.4946 15.5177 15.5408 15.5625 15.5842 15.6051 15.6258 15.6465 15.6659 15.6848 15.7034 15.7221 15.7406 15.7577 15.7744 15.791 15.8077 15.8243 15.8256 15.8269 15.8281 15.8294 15.8307 15.8445 15.8582 15.872 15.8857 15.8993 15.9125 15.9259 15.9393 15.9526 15.9657 15.9773 15.9891 16.001 16.0127 16.0243 16.0346 16.0449 16.0554 16.0657 16.0761 16.0851 16.0942 16.1033 16.1125 16.1217 16.1296 16.1376 16.1456 16.1537 16.1618 16.1689 16.1759 16.1829 16.1901 16.1973 16.2035 16.2097 16.2159 16.2222 16.2287 16.2342 16.2397 16.2453 16.2508 16.2566 16.2616 16.2666 16.2716 16.2766 16.2818 16.2864 16.2911 16.2957 16.3004 16.3052 16.3096 16.3141 16.3185 16.323 16.3275 16.3304 16.3332 16.3361 16.3389 16.3423 16.3439 16.3455 16.3471 16.3487 16.3503 16.3552 16.3602 16.3651 16.37 16.3751 16.3807 16.3865 16.3922 16.3979 16.404 16.4108 16.4177 16.4245 16.4313 16.4387 16.4472 16.456 16.4648 16.4736 16.4841 16.4944 16.5025 16.5106 16.5186 16.527 16.5359 16.5455 16.5551 16.5646 16.5768 16.5805 16.5754 16.5701 16.5644 16.5348 16.4973 16.4593 16.421 16.3803 16.3353 16.2879 16.2428 16.2022 16.1652 16.1291 16.0912 16.0532 16.0156 15.9783 15.941 15.9014 15.8617 15.8198 15.7757 15.7315 15.6847 15.6378 15.5897 15.5407 15.4916 15.4397 15.3877 15.335 15.2819 15.2287 15.1726 15.1159 15.0586 15.0008 14.9425 14.8812 14.8187 14.7557 14.6926 14.6281 14.5605 14.4912 14.4218 14.3524 14.2815 14.2066 14.13 14.0535 13.9769 13.8992 13.8159 13.7314 13.6468 13.5623 13.477 13.3844 13.2909 13.1974 13.1039 13.0102 12.9782 12.9459 12.9137 12.8815 12.8472 12.7764 12.7056 12.6348 12.564 12.4926 12.3785 12.2637 12.1488 12.034 11.9175 11.7916 11.6638 11.5359 11.4081 11.2774 11.1382 10.9954 10.8526 10.7098 10.5624 10.4079 10.2483 10.0887 9.92916 9.76366 9.59256 9.41308 9.23321 9.05201 8.86315 8.66817 8.46885 8.26812 8.06549 7.85891 7.64556 7.42174 7.18986 6.94833 6.69745 6.43823 6.1819 5.93032 5.68394 5.44006 5.18792 4.922 4.60034 4.21614 3.8221 3.41419 3.00788 2.71726 2.53874 2.36028 2.17531 1.99046 1.51391 0.756418 0