# vtk DataFile Version 2.0
track0
ASCII
DATASET POLYDATA
POINTS 12075 float
-0.0205 0.001 1e-05
-0.02052 0.000999985 1e-05
-0.02054 0.000999974 1e-05
-0.02056 0.000999965 1e-05
-0.02058 0.000999959 1e-05
-0.0206 0.000999956 1e-05
-0.0205 0.00367778 1e-05
-0.02052 0.00367778 1e-05
-0.02054 0.00367777 1e-05
-0.02056 0.00367777 1e-05
-0.02058 0.00367777 1e-05
-0.0206 0.00367777 1e-05
-0.0205 0.00635556 1e-05
-0.02052 0.00635555 1e-05
-0.02054 0.00635555 1e-05
-0.02056 0.00635555 1e-05
-0.02058 0.00635555 1e-05
-0.0206 0.00635555 1e-05
-0.0205 0.00903333 1e-05
-0.02052 0.00903333 1e-05
-0.02054 0.00903333 1e-05
-0.02056 0.00903333 1e-05
-0.02058 0.00903333 1e-05
-0.0206 0.00903333 1e-05
-0.0205 0.0117111 1e-05
-0.02052 0.0117111 1e-05
-0.02054 0.0117111 1e-05
-0.02056 0.0117111 1e-05
-0.02058 0.0117111 1e-05
-0.0206 0.0117111 1e-05
-0.0205 0.0143889 1e-05
-0.02052 0.0143889 1e-05
-0.02054 0.0143889 1e-05
-0.02056 0.0143889 1e-05
-0.02058 0.0143889 1e-05
-0.0206 0.0143889 1e-05
-0.0205 0.0170667 1e-05
-0.02052 0.0170667 1e-05
-0.02054 0.0170667 1e-05
-0.02056 0.0170667 1e-05
-0.02058 0.0170667 1e-05
-0.0206 0.0170667 1e-05
-0.0205 0.0197444 1e-05
-0.02052 0.0197444 1e-05
-0.02054 0.0197444 1e-05
-0.02056 0.0197444 1e-05
-0.02058 0.0197444 1e-05
-0.0206 0.0197444 1e-05
-0.0205 0.0224222 1e-05
-0.02052 0.0224222 1e-05
-0.02054 0.0224222 1e-05
-0.02056 0.0224222 1e-05
-0.02058 0.0224222 1e-05
-0.0206 0.0224222 1e-05
-0.0205 0.0251 1e-05
-0.02052 0.0250998 1e-05
-0.02054 0.0250997 1e-05
-0.02056 0.0250995 1e-05
-0.02058 0.0250995 1e-05
-0.0206 0.0250994 1e-05
-0.0205 0.001 1e-05
-0.0202034 0.00100022 1e-05
-0.0199069 0.00100067 1e-05
-0.0196103 0.00100132 1e-05
-0.0193137 0.00100219 1e-05
-0.0190172 0.00100326 1e-05
-0.0187132 0.00100466 1e-05
-0.0184093 0.00100588 1e-05
-0.0181054 0.0010071 1e-05
-0.0178015 0.00100832 1e-05
-0.0174976 0.00100953 1e-05
-0.0172058 0.00101083 1e-05
-0.016914 0.00101193 1e-05
-0.0166222 0.00101303 1e-05
-0.0163305 0.00101413 1e-05
-0.0160387 0.00101523 1e-05
-0.0157586 0.00101636 1e-05
-0.0154784 0.00101745 1e-05
-0.0151983 0.00101856 1e-05
-0.0149182 0.00101972 1e-05
-0.0146381 0.0010209 1e-05
-0.0143747 0.00102209 1e-05
-0.0141113 0.00102327 1e-05
-0.0138479 0.00102449 1e-05
-0.0135845 0.00102574 1e-05
-0.0133621 0.00102682 1e-05
-0.0133484 0.00102689 1e-05
-0.0133346 0.00102695 1e-05
-0.0133209 0.00102702 1e-05
-0.0133072 0.00102709 1e-05
-0.0132934 0.00102716 1e-05
-0.0130353 0.00102845 1e-05
-0.0127771 0.00102975 1e-05
-0.0125189 0.00103107 1e-05
-0.0122607 0.0010324 1e-05
-0.0120025 0.00103376 1e-05
-0.0117547 0.00103506 1e-05
-0.0115068 0.00103638 1e-05
-0.0112589 0.0010377 1e-05
-0.0110111 0.00103903 1e-05
-0.0107632 0.00104036 1e-05
-0.0105252 0.00104163 1e-05
-0.0102873 0.00104291 1e-05
-0.0100493 0.00104419 1e-05
-0.00981133 0.00104547 1e-05
-0.00957337 0.00104675 1e-05
-0.00934491 0.00104797 1e-05
-0.00911645 0.00104919 1e-05
-0.00888799 0.00105041 1e-05
-0.00865954 0.00105163 1e-05
-0.00843108 0.00105284 1e-05
-0.00821175 0.001054 1e-05
-0.00799242 0.00105516 1e-05
-0.00777309 0.00105632 1e-05
-0.00755376 0.00105747 1e-05
-0.00733443 0.00105861 1e-05
-0.00712387 0.0010597 1e-05
-0.0069133 0.0010608 1e-05
-0.00670273 0.00106188 1e-05
-0.00649216 0.00106297 1e-05
-0.0062816 0.00106405 1e-05
-0.00607944 0.00106507 1e-05
-0.00587729 0.0010661 1e-05
-0.00567514 0.00106713 1e-05
-0.00547298 0.00106815 1e-05
-0.00527083 0.00106916 1e-05
-0.00507675 0.00107013 1e-05
-0.00488267 0.00107109 1e-05
-0.0046886 0.00107206 1e-05
-0.00449452 0.00107302 1e-05
-0.00430044 0.00107397 1e-05
-0.00411412 0.00107488 1e-05
-0.0039278 0.00107579 1e-05
-0.00374147 0.0010767 1e-05
-0.00355515 0.00107761 1e-05
-0.00336883 0.00107851 1e-05
-0.00318995 0.00107937 1e-05
-0.00301107 0.00108023 1e-05
-0.00283219 0.00108109 1e-05
-0.00265331 0.00108194 1e-05
-0.00247443 0.0010828 1e-05
-0.0023027 0.00108361 1e-05
-0.00213097 0.00108443 1e-05
-0.00195924 0.00108525 1e-05
-0.0017875 0.00108607 1e-05
-0.00161577 0.00108688 1e-05
-0.0014509 0.00108766 1e-05
-0.00128603 0.00108844 1e-05
-0.00112116 0.00108923 1e-05
-0.000956289 0.00109001 1e-05
-0.000791418 0.0010908 1e-05
-0.000633135 0.00109156 1e-05
-0.000474851 0.00109232 1e-05
-0.000316567 0.00109309 1e-05
-0.000158284 0.00109385 1e-05
0 0.00109462 1e-05
0.000105677 0.00109513 1e-05
0.000211355 0.00109564 1e-05
0.000317032 0.00109615 1e-05
0.00042271 0.00109666 1e-05
0.000528387 0.00109716 1e-05
0.000634886 0.00109766 1e-05
0.000741385 0.00109816 1e-05
0.000847885 0.00109866 1e-05
0.000954384 0.00109916 1e-05
0.00106088 0.00109965 1e-05
0.00116821 0.00110013 1e-05
0.00127554 0.00110062 1e-05
0.00138286 0.00110109 1e-05
0.00149019 0.00110156 1e-05
0.00159752 0.00110203 1e-05
0.00170568 0.00110248 1e-05
0.00181384 0.00110294 1e-05
0.001922 0.00110338 1e-05
0.00203016 0.00110381 1e-05
0.00213833 0.00110424 1e-05
0.00224733 0.00110466 1e-05
0.00235633 0.00110507 1e-05
0.00246533 0.00110547 1e-05
0.00257434 0.00110587 1e-05
0.00268334 0.00110625 1e-05
0.00279319 0.00110663 1e-05
0.00290304 0.001107 1e-05
0.00301289 0.00110737 1e-05
0.00312274 0.00110773 1e-05
0.00323259 0.00110807 1e-05
0.00334329 0.00110841 1e-05
0.003454 0.00110875 1e-05
0.0035647 0.00110908 1e-05
0.0036754 0.0011094 1e-05
0.00378611 0.00110971 1e-05
0.00389767 0.00111001 1e-05
0.00400924 0.00111031 1e-05
0.0041208 0.0011106 1e-05
0.00423237 0.00111088 1e-05
0.00434393 0.00111115 1e-05
0.00445636 0.00111142 1e-05
0.00456879 0.00111168 1e-05
0.00468123 0.00111193 1e-05
0.00479366 0.00111218 1e-05
0.00490609 0.00111241 1e-05
0.0050194 0.00111264 1e-05
0.0051327 0.00111286 1e-05
0.00524601 0.00111307 1e-05
0.00535932 0.00111328 1e-05
0.00547262 0.00111348 1e-05
0.00558681 0.00111367 1e-05
0.005701 0.00111385 1e-05
0.00581518 0.00111403 1e-05
0.00592937 0.0011142 1e-05
0.00604356 0.00111436 1e-05
0.00615863 0.00111451 1e-05
0.00627371 0.00111466 1e-05
0.00638878 0.0011148 1e-05
0.00650386 0.00111493 1e-05
0.00661893 0.00111505 1e-05
0.0067349 0.00111517 1e-05
0.00685087 0.00111527 1e-05
0.00696684 0.00111538 1e-05
0.00708281 0.00111547 1e-05
0.00719878 0.00111555 1e-05
0.00731487 0.00111563 1e-05
0.00743095 0.0011157 1e-05
0.00754704 0.00111576 1e-05
0.00766313 0.00111581 1e-05
0.00777264 0.00111586 1e-05
0.00777474 0.00111586 1e-05
0.00777684 0.00111586 1e-05
0.00777894 0.00111586 1e-05
0.00778104 0.00111586 1e-05
0.00778313 0.00111586 1e-05
0.00790091 0.0011159 1e-05
0.00801869 0.00111593 1e-05
0.00813647 0.00111595 1e-05
0.00825425 0.00111597 1e-05
0.00837203 0.00111597 1e-05
0.00849073 0.00111597 1e-05
0.00860942 0.00111596 1e-05
0.00872812 0.00111594 1e-05
0.00884682 0.00111591 1e-05
0.00896551 0.00111588 1e-05
0.00908513 0.00111582 1e-05
0.00920475 0.00111577 1e-05
0.00932437 0.00111571 1e-05
0.00944398 0.00111564 1e-05
0.0095636 0.00111557 1e-05
0.00968415 0.00111547 1e-05
0.0098047 0.00111537 1e-05
0.00992525 0.00111527 1e-05
0.0100458 0.00111516 1e-05
0.0101663 0.00111504 1e-05
0.0102878 0.0011149 1e-05
0.0104093 0.00111476 1e-05
0.0105308 0.00111461 1e-05
0.0106523 0.00111445 1e-05
0.0107738 0.00111428 1e-05
0.0108962 0.0011141 1e-05
0.0110186 0.00111391 1e-05
0.0111411 0.00111372 1e-05
0.0112635 0.00111351 1e-05
0.0113859 0.0011133 1e-05
0.0115093 0.00111306 1e-05
0.0116327 0.00111283 1e-05
0.0117561 0.00111259 1e-05
0.0118795 0.00111234 1e-05
0.0120028 0.00111208 1e-05
0.0121272 0.00111179 1e-05
0.0122515 0.00111151 1e-05
0.0123759 0.00111122 1e-05
0.0125002 0.00111092 1e-05
0.0126245 0.00111062 1e-05
0.0127498 0.00111028 1e-05
0.0128752 0.00110995 1e-05
0.0130005 0.00110961 1e-05
0.0131258 0.00110926 1e-05
0.0132511 0.0011089 1e-05
0.0133774 0.00110852 1e-05
0.0135036 0.00110814 1e-05
0.0136299 0.00110775 1e-05
0.0137562 0.00110735 1e-05
0.0138825 0.00110694 1e-05
0.0140098 0.0011065 1e-05
0.014137 0.00110607 1e-05
0.0142643 0.00110562 1e-05
0.0143915 0.00110517 1e-05
0.0145188 0.00110471 1e-05
0.0146471 0.00110422 1e-05
0.0147753 0.00110374 1e-05
0.0149036 0.00110324 1e-05
0.0150318 0.00110273 1e-05
0.0151601 0.00110221 1e-05
0.0152893 0.00110168 1e-05
0.0154186 0.00110114 1e-05
0.0155478 0.00110058 1e-05
0.0156771 0.00110002 1e-05
0.0158063 0.00109945 1e-05
0.0159366 0.00109886 1e-05
0.0160668 0.00109827 1e-05
0.0161971 0.00109766 1e-05
0.0163274 0.00109704 1e-05
0.0164576 0.00109642 1e-05
0.0165889 0.00109578 1e-05
0.0167201 0.00109513 1e-05
0.0168514 0.00109446 1e-05
0.0169827 0.00109379 1e-05
0.0171139 0.00109311 1e-05
0.0172462 0.00109242 1e-05
0.0173785 0.00109171 1e-05
0.0175108 0.00109099 1e-05
0.0176431 0.00109026 1e-05
0.0177754 0.00108952 1e-05
0.0179087 0.00108878 1e-05
0.018042 0.00108802 1e-05
0.0181753 0.00108724 1e-05
0.0183087 0.00108645 1e-05
0.018442 0.00108566 1e-05
0.0185763 0.00108487 1e-05
0.0187107 0.00108405 1e-05
0.018845 0.00108321 1e-05
0.0189794 0.00108237 1e-05
0.0191137 0.00108152 1e-05
0.0192491 0.00108067 1e-05
0.0193845 0.0010798 1e-05
0.0195199 0.0010789 1e-05
0.0196553 0.001078 1e-05
0.0197907 0.0010771 1e-05
0.0199272 0.00107619 1e-05
0.0200636 0.00107526 1e-05
0.0202001 0.00107431 1e-05
0.0203365 0.00107335 1e-05
0.020473 0.00107239 1e-05
0.0206105 0.00107143 1e-05
0.020748 0.00107045 1e-05
0.0208855 0.00106944 1e-05
0.021023 0.00106842 1e-05
0.0211606 0.0010674 1e-05
0.0212991 0.00106639 1e-05
0.0214377 0.00106535 1e-05
0.0215763 0.00106428 1e-05
0.0217149 0.0010632 1e-05
0.0218535 0.00106213 1e-05
0.0219931 0.00106106 1e-05
0.0221328 0.00105996 1e-05
0.0222724 0.00105883 1e-05
0.0224121 0.0010577 1e-05
0.0225517 0.00105657 1e-05
0.0226925 0.00105544 1e-05
0.0228332 0.00105428 1e-05
0.022974 0.0010531 1e-05
0.0231147 0.0010519 1e-05
0.0232555 0.00105071 1e-05
0.0233973 0.00104953 1e-05
0.0235391 0.00104831 1e-05
0.023681 0.00104707 1e-05
0.0238228 0.00104581 1e-05
0.0239647 0.00104457 1e-05
0.0241076 0.00104332 1e-05
0.0242505 0.00104205 1e-05
0.0243935 0.00104074 1e-05
0.0245364 0.00103943 1e-05
0.0246794 0.00103812 1e-05
0.0248234 0.00103682 1e-05
0.0249675 0.00103548 1e-05
0.0251115 0.00103412 1e-05
0.0252556 0.00103274 1e-05
[...]
POINT_DATA 12075
 FIELD attributes 1
U 3 12075 float
10.0004 	0.00731841 	0 10.0004 	0.00585472 	0 10.0003 	0.00439104 	0 10.0002 	0.00292736 	0 10.0001 	0.00146368 	0 10 	0 	0
10.0001 	0.000879905 	0 10 	0.000703924 	0 10 	0.000527943 	0 10 	0.000351962 	0 10 	0.000175981 	0 10 	0 	0
10.0001 	0.000467219 	0 10.0001 	0.000373585 	0 10.0001 	0.00027995 	0 10 	0.000186316 	0 10 	9.2682e-05 	0 10 	0 	0
10 	0.000267395 	0 10 	0.000213916 	0 10 	0.000160437 	0 10 	0.000106958 	0 10 	5.3479e-05 	0 10 	0 	0
10 	8.17486e-05 	0 10 	6.53988e-05 	0 10 	4.90491e-05 	0 10 	3.26994e-05 	0 10 	1.63497e-05 	0 10 	0 	0
10 	-2.49986e-05 	0 10 	-1.99989e-05 	0 10 	-1.49992e-05 	0 10 	-9.99946e-06 	0 10 	-4.99973e-06 	0 10 	0 	0
10 	-0.000215256 	0 10 	-0.000172205 	0 10 	-0.000129154 	0 10 	-8.61023e-05 	0 10 	-4.30512e-05 	0 10 	0 	0
10 	-0.000377247 	0 10 	-0.000301798 	0 10 	-0.000226348 	0 10 	-0.000150899 	0 10 	-7.54494e-05 	0 10 	0 	0
9.99999 	-0.000427196 	0 9.99999 	-0.000341757 	0 9.99999 	-0.000256318 	0 10 	-0.000170878 	0 10 	-8.54392e-05 	0 10 	0 	0
9.17387 	0.0870992 	0 9.1308 	0.0696794 	0 9.08741 	0.0522592 	0 9.04368 	0.0348389 	0 8.99962 	0.0174184 	0 8.95524 	0 	0
10.0004 	0.00731841 	0 10.0024 	0.015169 	0 10.0045 	0.0221881 	0 10.0065 	0.029163 	0 10.0085 	0.0360939 	0 10.0135 	0.0463094 	0 10.0163 	0.0402089 	0 10.0207 	0.0401677 	0 10.0252 	0.0401267 	0 10.0296 	0.0400858 	0 10.0356 	0.0445467 	0 10.0384 	0.0379068 	0 10.0424 	0.0378633 	0 10.0464 	0.0378197 	0 10.0504 	0.0377761 	0 10.0545 	0.0408775 	0 10.0567 	0.0388005 	0 10.0591 	0.0401103 	0 10.0616 	0.0414216 	0 10.064 	0.0427347 	0 10.0662 	0.045193 	0 10.0677 	0.0453045 	0 10.069 	0.0465068 	0 10.0703 	0.0477102 	0 10.0717 	0.0489148 	0 10.0728 	0.0499332 	0 10.0729 	0.0499964 	0 10.0729 	0.0500597 	0 10.073 	0.050123 	0 10.0731 	0.0501863 	0 10.0732 	0.0502401 	0 10.0737 	0.0508679 	0 10.0742 	0.0514896 	0 10.0747 	0.0521119 	0 10.0752 	0.0527347 	0 10.0757 	0.0531933 	0 10.0756 	0.0534905 	0 10.0752 	0.0536822 	0 10.0749 	0.053874 	0 10.0745 	0.0540659 	0 10.074 	0.0540192 	0 10.0736 	0.0541664 	0 10.0725 	0.054145 	0 10.0714 	0.0541236 	0 10.0703 	0.0541022 	0 10.0687 	0.0538116 	0 10.0683 	0.0538949 	0 10.0667 	0.0537643 	0 10.0651 	0.0536336 	0 10.0634 	0.053503 	0 10.0609 	0.0530859 	0 10.0609 	0.0531442 	0 10.0589 	0.0529537 	0 10.0568 	0.0527631 	0 10.0548 	0.0525725 	0 10.0512 	0.0520831 	0 10.0518 	0.052142 	0 10.0495 	0.051927 	0 10.0472 	0.0517119 	0 10.0449 	0.0514968 	0 10.0402 	0.0509752 	0 10.0417 	0.0510568 	0 10.0392 	0.05084 	0 10.0366 	0.050623 	0 10.0341 	0.0504061 	0 10.0283 	0.0498698 	0 10.0308 	0.0499825 	0 10.0281 	0.0497826 	0 10.0254 	0.0495827 	0 10.0228 	0.0493827 	0 10.0158 	0.048857 	0 10.0194 	0.0490134 	0 10.0167 	0.0488346 	0 10.0139 	0.0486557 	0 10.0112 	0.0484768 	0 10.003 	0.0479554 	0 10.0079 	0.04816 	0 10.0051 	0.0480479 	0 10.0023 	0.0479358 	0 9.99957 	0.0478237 	0 9.99028 	0.0473823 	0 9.99644 	0.0476811 	0 9.99371 	0.047608 	0 9.99097 	0.0475349 	0 9.98823 	0.0474617 	0 9.97773 	0.0470023 	0 9.98529 	0.047352 	0 9.98267 	0.0474917 	0 9.98004 	0.0476314 	0 9.97742 	0.0477712 	0 9.96579 	0.0475914 	0 9.97492 	0.048094 	1.0659e-21 9.97301 	0.048185 	7.08557e-21 9.97111 	0.048276 	1.31051e-20 9.9692 	0.0483671 	1.91245e-20 9.95718 	0.0479592 	1.61728e-20 9.96766 	0.0482122 	1.12511e-19 9.96604 	0.048 	1.04529e-19 9.96442 	0.0477879 	9.65449e-20 9.96279 	0.0475756 	8.85577e-20 9.95058 	0.0469296 	-1.78727e-20 9.96098 	0.0468621 	-4.85652e-20 9.9594 	0.0465002 	-5.40187e-20 9.95781 	0.0461382 	-5.94701e-20 9.95622 	0.0457763 	-6.49191e-20 9.94412 	0.0451386 	-2.52525e-20 9.95407 	0.0448644 	-2.22522e-20 9.95224 	0.0442041 	-1.5462e-20 9.95041 	0.0435437 	-8.67228e-21 9.94857 	0.0428833 	-1.88321e-21 9.93654 	0.0420143 	8.49641e-21 9.94608 	0.04168 	-6.45018e-21 9.94397 	0.040812 	-2.842e-20 9.94186 	0.0399439 	-5.03924e-20 9.93975 	0.0390756 	-7.23674e-20 9.9277 	0.0379225 	-1.03572e-19 9.9367 	0.0376921 	-1.4766e-19 9.93421 	0.036844 	-1.33083e-19 9.93172 	0.0359956 	-1.18497e-19 9.92922 	0.0351469 	-1.03902e-19 9.91709 	0.0338682 	-3.52099e-20 9.9254 	0.0337616 	4.23135e-20 9.9225 	0.0329967 	5.82595e-20 9.91959 	0.0322316 	7.41941e-20 9.91667 	0.0314662 	9.01173e-20 9.90452 	0.030168 	4.33261e-20 9.91205 	0.0300894 	-5.78521e-20 9.90873 	0.0293579 	-6.506e-20 9.9054 	0.0286262 	-7.22504e-20 9.90207 	0.0278941 	-7.94231e-20 9.88999 	0.0266149 	-3.99073e-22 9.89663 	0.0264941 	7.43577e-20 9.89287 	0.025771 	6.3342e-20 9.88909 	0.0250477 	5.23087e-20 9.88532 	0.0243241 	4.1258e-20 9.87337 	0.0231013 	-3.31434e-20 9.87894 	0.0229166 	-9.9482e-20 9.87469 	0.0222008 	-1.25642e-19 9.87043 	0.0214847 	-1.51796e-19 9.86617 	0.0207684 	-1.77942e-19 9.85446 	0.0196276 	-1.59839e-19 9.85872 	0.019378 	-1.84753e-19 9.85397 	0.0186738 	-1.70116e-19 9.84921 	0.0179693 	-1.55472e-19 9.84445 	0.0172645 	-1.40824e-19 9.83314 	0.0162176 	-9.74413e-20 9.83584 	0.0159117 	-8.21731e-20 9.83059 	0.0152234 	-6.0405e-20 9.82533 	0.0145349 	-3.86391e-20 9.82007 	0.0138461 	-1.68753e-20 9.8094 	0.012893 	2.68754e-21 9.81023 	0.0125228 	0 9.80449 	0.0118443 	0 9.79875 	0.0111656 	0 9.793 	0.0104866 	0 9.78328 	0.00962136 	0 9.78187 	0.00917224 	-1.90177e-20 9.77565 	0.0084994 	-4.13067e-20 9.76943 	0.00782621 	-6.35978e-20 9.7632 	0.00715269 	-8.58909e-20 9.7548 	0.00637923 	-1.09252e-19 9.75077 	0.00583884 	-1.15707e-19 9.74413 	0.00517632 	-1.16559e-19 9.73749 	0.00451345 	-1.17405e-19 9.73083 	0.00385021 	-1.18245e-19 9.72454 	0.00322421 	-1.19031e-19 9.72442 	0.00321214 	-1.1907e-19 9.7243 	0.00320007 	-1.19108e-19 9.72418 	0.003188 	-1.19147e-19 9.72405 	0.00317593 	-1.19186e-19 9.72382 	0.00315862 	-1.19185e-19 9.71671 	0.00249803 	-8.51035e-20 9.7095 	0.00183224 	-5.08508e-20 9.70227 	0.00116604 	-1.66097e-20 9.69503 	0.000499409 	1.76197e-20 9.68131 	-0.000456098 	5.95887e-20 9.6796 	-0.000858764 	6.06865e-20 9.67194 	-0.00152109 	6.20089e-20 9.66427 	-0.00218387 	6.33285e-20 9.65659 	-0.00284712 	6.46454e-20 9.63624 	-0.00405135 	6.80837e-20 9.63975 	-0.0042295 	5.37391e-20 9.63168 	-0.0048882 	3.93919e-20 9.62359 	-0.00554741 	2.50433e-20 9.61549 	-0.00620712 	1.06932e-20 9.58886 	-0.00761272 	-1.12749e-21 9.5973 	-0.00761307 	-1.00868e-20 9.58883 	-0.00826952 	-2.37803e-20 9.58034 	-0.00892653 	-3.74723e-20 9.57185 	-0.00958408 	-5.11628e-20 9.53945 	-0.0111371 	-6.48699e-20 9.55238 	-0.0110121 	-6.53909e-20 9.54355 	-0.0116685 	-7.40194e-20 9.5347 	-0.0123255 	-8.2644e-20 9.52584 	-0.0129831 	-9.12647e-20 9.48831 	-0.0146266 	-1.12537e-19 9.50523 	-0.0144279 	-1.72441e-19 9.49606 	-0.015084 	-1.61254e-19 9.48687 	-0.0157407 	-1.50084e-19 9.47767 	-0.016398 	-1.3893e-19 9.43571 	-0.0180709 	-4.86041e-20 9.45603 	-0.0178496 	-3.14293e-20 9.44655 	-0.0185055 	-2.21197e-20 9.43705 	-0.0191621 	-1.28092e-20 9.42754 	-0.0198194 	-3.49767e-21 9.38189 	-0.0214645 	0 9.40502 	-0.0212721 	0 9.39525 	-0.0219296 	0 9.38548 	-0.0225878 	0 9.37568 	-0.0232467 	0 9.3271 	-0.0248117 	0 9.35244 	-0.0246995 	2.15247e-21 9.34243 	-0.0253593 	1.07988e-20 9.3324 	-0.0260199 	1.94442e-20 9.32235 	-0.0266812 	2.80886e-20 9.27157 	-0.0281121 	4.87518e-20 9.29856 	-0.0281282 	1.8373e-19 9.28832 	-0.0287895 	1.87185e-19 9.27806 	-0.0294515 	1.90659e-19 9.26778 	-0.0301143 	1.94152e-19 9.21552 	-0.0313589 	4.89776e-20 9.24362 	-0.0315444 	2.65181e-20 9.23317 	-0.0322058 	1.87552e-20 9.22271 	-0.0328679 	1.09911e-20 9.21095 	-0.0335414 	3.9701e-21 9.15912 	-0.0345447 	2.01472e-20 9.18509 	-0.0349531 	1.22803e-19 9.17724 	-0.0355947 	1.31949e-19 9.1666 	-0.0362562 	1.33446e-19 9.15075 	-0.0369288 	1.18896e-19 9.10256 	-0.0376663 	4.58752e-21 9.12519 	-0.0382931 	-1.16819e-19 9.12074 	-0.0389466 	-1.49518e-19 9.10996 	-0.039607 	-1.61494e-19 9.09072 	-0.0402269 	-1.50833e-19 9.046 	-0.0407229 	-7.17229e-20 9.06551 	-0.0415452 	-2.09135e-19 9.06392 	-0.0422539 	-2.53067e-19 9.053 	-0.042913 	-2.55811e-19 9.03105 	-0.0434354 	-2.03871e-19 8.98958 	-0.043715 	-5.50666e-20 9.00622 	-0.0447102 	-2.89736e-20 9.00696 	-0.0455112 	-1.29852e-20 8.99594 	-0.0461687 	-4.46788e-21 8.97188 	-0.0465558 	0 8.93345 	-0.046644 	0 8.94744 	-0.0477895 	0 8.95006 	-0.0487135 	0 8.93896 	-0.0493694 	0 8.91333 	-0.0495905 	2.29636e-21 8.87772 	-0.0495121 	6.17329e-21 8.8893 	-0.0507868 	2.48012e-21 8.8934 	-0.0518583 	0 8.88223 	-0.0525126 	0 8.85551 	-0.0525439 	2.76175e-21 8.82249 	-0.0523223 	6.64376e-21 8.83189 	-0.0537056 	2.95023e-21 8.83712 	-0.0549429 	1.54762e-21 8.82591 	-0.0555957 	9.24355e-21 8.79851 	-0.0554203 	2.85542e-20 8.76787 	-0.0550785 	5.01981e-20 8.7753 	-0.0565526 	1.97356e-19 8.78136 	-0.0579696 	3.34335e-19 8.77012 	-0.0586215 	3.38484e-19 8.7424 	-0.0582282 	1.97964e-19 8.71393 	-0.0577868 	5.08192e-20 8.7196 	-0.0593347 	2.94971e-20 8.72521 	-0.0608842 	8.1767e-21 8.71375 	-0.0614942 	3.04835e-22 8.68725 	-0.0609718 	4.03005e-21 8.66077 	-0.0604491 	7.75509e-21 8.66485 	-0.0620517 	4.2237e-21 8.66887 	-0.0636559 	6.93346e-22 8.65781 	-0.0642349 	2.6111e-21 8.63311 	-0.0636523 	-1.94854e-21 8.60843 	-0.0630692 	-6.50706e-21 8.6111 	-0.064718 	-5.73789e-20 8.61372 	-0.0663685 	-1.08256e-19 8.60309 	-0.066919 	-1.09847e-19 8.58003 	-0.0662895 	-6.3325e-20 8.55698 	-0.0656596 	-1.68007e-20 8.55841 	-0.0673502 	9.91234e-20 8.55978 	-0.0690426 	2.15041e-19 8.54964 	-0.0695647 	2.25004e-19 8.52805 	-0.0688928 	1.28418e-19 8.50648 	-0.0682205 	3.18329e-20 8.50682 	-0.0699368 	1.84934e-20 8.50711 	-0.0716548 	5.14963e-21 8.49746 	-0.072149 	5.11867e-22 8.47719 	-0.0714513 	5.95638e-21 8.45694 	-0.0707532 	1.14029e-20 8.45633 	-0.0724805 	4.84824e-21 8.45566 	-0.0742094 	-1.71278e-21 8.44653 	-0.0746787 	-2.41591e-20 8.42745 	-0.0739751 	-8.2605e-20 8.40839 	-0.0732711 	-1.41054e-19 8.40694 	-0.0749984 	-2.9384e-19 8.40543 	-0.0767273 	-4.46619e-19 8.39683 	-0.0771737 	-4.28662e-19 8.37882 	-0.0764781 	-2.53519e-19 8.36083 	-0.0757819 	-7.83775e-20 8.35864 	-0.0775015 	6.64117e-20 8.35626 	-0.0791936 	2.07968e-19 8.34786 	-0.0795898 	2.05108e-19 8.33129 	-0.0789715 	1.05592e-19 8.31427 	-0.0782939 	4.59474e-22 8.31143 	-0.0800029 	-1.03806e-19 8.30766 	-0.0814984 	-1.92665e-19 8.29939 	-0.0819043 	-2.03378e-19 8.28486 	-0.0814704 	-1.33717e-19 8.26872 	-0.0808182 	-4.3193e-20 8.2653 	-0.0825149 	-3.01533e-20 8.2604 	-0.0838165 	-1.72293e-20 8.25226 	-0.0842339 	-4.5573e-21 8.2395 	-0.083986 	1.53564e-20 8.22416 	-0.0833641 	3.93394e-20 8.22023 	-0.0850475 	1.3863e-20 8.21443 	-0.08616 	-3.06539e-21 8.20641 	-0.0865905 	-9.78884e-21 8.19519 	-0.086528 	-4.82108e-21 8.18057 	-0.0859402 	1.25967e-20 8.17619 	-0.0876103 	-6.78733e-21 8.16967 	-0.08854 	-1.89216e-20 8.16177 	-0.088985 	-2.63121e-20 8.15189 	-0.0891058 	-3.94826e-20 8.13794 	-0.0885548 	-6.46124e-20 8.13314 	-0.090212 	6.12986e-20 8.12609 	-0.0909658 	9.41373e-20 8.1183 	-0.0914268 	9.67927e-20 8.10957 	-0.0917279 	8.12493e-20 8.09622 	-0.0912159 	-2.65536e-20 8.09107 	-0.0928614 	7.96303e-20 8.08362 	-0.0934469 	9.26111e-20 8.07592 	-0.0939252 	9.61243e-20 8.0682 	-0.0944029 	9.95411e-20 8.05539 	-0.0939317 	1.12032e-20 8.04979 	-0.0954951 	-7.20462e-22 8.0422 	-0.0959917 	-4.92838e-22 8.03459 	-0.0964885 	-2.65241e-22 8.02697 	-0.0969857 	-3.76719e-23 8.01543 	-0.09671 	1.92397e-20 8.0093 	-0.098092 	0 8.00179 	-0.0986084 	0 7.99427 	-0.0991252 	0 7.98672 	-0.0996423 	0 7.97631 	-0.0995586 	1.54592e-20 7.96977 	-0.100768 	0 7.96234 	-0.101305 	0 7.95489 	-0.101843 	0 7.94741 	-0.102381 	0 7.93798 	-0.102485 	0 7.93115 	-0.103529 	0 7.92378 	-0.104089 	0 7.91639 	-0.10465 	0 7.90899 	-0.10521 	0 7.9004 	-0.105498 	-7.14727e-21 7.89337 	-0.106385 	0 7.88606 	-0.106969 	0 7.87874 	-0.107552 	0 7.87138 	-0.108136 	0 7.86354 	-0.108604 	-6.2796e-21 7.85801 	-0.109205 	0 7.85238 	-0.109677 	0 7.84674 	-0.110148 	0 7.84109 	-0.110621 	0 7.83562 	-0.111076 	0 7.83389 	-0.111216 	0 7.83216 	-0.111357 	0 7.83042 	-0.111497 	0 7.82869 	-0.111637 	0 7.82715 	-0.111739 	0 7.81967 	-0.112409 	-1.05844e-20 7.81224 	-0.113045 	-2.16495e-20 7.80478 	-0.113681 	-3.27128e-20 7.7973 	-0.114318 	-4.37743e-20 7.79084 	-0.11475 	-5.48451e-20 7.78307 	-0.115597 	-5.14421e-20 7.77567 	-0.11626 	-5.06517e-20 7.76825 	-0.116924 	-4.98574e-20 7.76079 	-0.117588 	-4.90593e-20 7.7552 	-0.117888 	-5.30694e-20 7.74714 	-0.118908 	-4.10665e-20 7.73976 	-0.1196 	-2.90401e-20 7.73235 	-0.120292 	-1.70117e-20 7.72492 	-0.120984 	-4.98132e-21 7.72017 	-0.121158 	0 7.7118 	-0.122347 	-2.00749e-21 7.70444 	-0.123068 	-7.45227e-21 7.69704 	-0.12379 	-1.2896e-20 7.68963 	-0.124511 	-1.83387e-20 7.6857 	-0.124567 	-2.37503e-20 7.67701 	-0.125921 	-6.03731e-20 7.66966 	-0.126674 	-8.29319e-20 7.66228 	-0.127427 	-1.05493e-19 7.65486 	-0.12818 	-1.28056e-19 7.65173 	-0.128124 	-1.10907e-19 7.6428 	-0.129613 	-8.21698e-20 7.63538 	-0.130428 	-6.8655e-20 7.62799 	-0.131215 	-5.58064e-20 7.62127 	-0.131872 	-4.93122e-20 7.61823 	-0.131841 	-7.68743e-20 7.60931 	-0.133346 	-9.2715e-20 7.60154 	-0.134341 	-8.1144e-20 7.59415 	-0.135161 	-6.02283e-20 7.58825 	-0.1357 	-3.33581e-20 7.58513 	-0.135724 	4.37559e-21 7.57623 	-0.137246 	9.18719e-21 7.56811 	-0.138416 	8.3825e-21 7.56069 	-0.139273 	2.58357e-21 7.5556 	-0.139699 	0 7.55239 	-0.139778 	0 7.54349 	-0.141319 	0 7.53501 	-0.142661 	0 7.52757 	-0.143554 	0 7.52327 	-0.143873 	0 7.51996 	-0.144008 	0 7.51105 	-0.14557 	0 7.50221 	-0.147081 	-1.62583e-21 7.49474 	-0.148012 	-2.15524e-20 7.49119 	-0.14823 	-4.1565e-20 7.48778 	-0.148422 	-6.15801e-20 7.47886 	-0.150006 	-3.97909e-20 7.46988 	-0.151592 	-1.79934e-20 7.46285 	-0.152526 	3.88947e-21 7.45933 	-0.152775 	8.48368e-21 7.4558 	-0.153025 	1.30777e-20 7.44686 	-0.154634 	4.96052e-20 7.43786 	-0.156244 	8.61305e-20 7.43127 	-0.15721 	9.84819e-20 7.42763 	-0.157517 	8.17437e-20 7.42398 	-0.157824 	6.50025e-20 7.41501 	-0.15946 	3.77712e-20 7.40598 	-0.161096 	1.05291e-20 7.39982 	-0.162096 	6.425e-21 7.39605 	-0.162461 	1.6898e-20 7.39226 	-0.162826 	2.73724e-20 7.38325 	-0.16449 	9.84123e-20 7.37418 	-0.166155 	1.69456e-19 7.36842 	-0.16719 	1.70276e-19 7.36451 	-0.167613 	1.00051e-19 7.36058 	-0.168037 	2.9824e-20 7.35153 	-0.169731 	2.03534e-20 7.34267 	-0.17138 	1.15974e-20 7.33723 	-0.172425 	1.21848e-20 7.33298 	-0.17298 	2.11219e-20 7.3289 	-0.173462 	3.13164e-20 7.31979 	-0.175188 	1.00485e-19 7.31174 	-0.17672 	1.47625e-19 7.30617 	-0.177811 	1.44861e-19 7.30141 	-0.178566 	1.02205e-19 7.29717 	-0.179107 	3.38872e-20 7.28799 	-0.180866 	2.47308e-20 7.28071 	-0.182285 	1.548e-20 7.27502 	-0.183423 	6.15098e-21 7.26974 	-0.184377 	0 7.26532 	-0.184976 	0 7.25607 	-0.18677 	0 7.24955 	-0.18808 	0 7.24371 	-0.189265 	0 7.23791 	-0.190416 	0 7.23331 	-0.191074 	0 7.22413 	-0.192877 	0 7.21818 	-0.194109 	0 7.21219 	-0.195342 	0 7.20616 	-0.196574 	0 7.20108 	-0.197404 	1.37374e-20 7.19267 	-0.199094 	2.89834e-21 7.18657 	-0.200374 	1.25107e-20 7.18041 	-0.201655 	2.21262e-20 7.17422 	-0.202936 	3.17447e-20 7.16859 	-0.20397 	4.36407e-20 7.16092 	-0.20555 	8.77694e-20 7.15465 	-0.206879 	9.22175e-20 7.14833 	-0.208209 	9.66357e-20 7.14196 	-0.209538 	1.01024e-19 7.13577 	-0.210775 	8.27672e-20 7.13133 	-0.211709 	9.66137e-20 7.1274 	-0.212549 	8.82174e-20 7.12346 	-0.213389 	7.98097e-20 7.1195 	-0.214229 	7.13907e-20 7.11569 	-0.215035 	6.33078e-20 7.11302 	-0.215579 	5.82028e-20 7.11034 	-0.216123 	5.3094e-20 7.10765 	-0.216667 	4.79813e-20 7.10496 	-0.217211 	4.28647e-20 7.10275 	-0.2177 	4.36607e-20 7.09568 	-0.21918 	4.16363e-20 7.08883 	-0.220605 	4.01027e-20 7.08193 	-0.22203 	3.85619e-20 7.07498 	-0.223455 	3.70139e-20 7.06974 	-0.224688 	4.12058e-20 7.06174 	-0.226355 	3.45907e-20 7.05469 	-0.22783 	3.3462e-20 7.04758 	-0.229305 	3.2326e-20 7.04043 	-0.23078 	3.11825e-20 7.03626 	-0.231928 	4.28233e-20 7.02732 	-0.233781 	5.44521e-20 7.02005 	-0.235305 	4.74099e-20 7.01272 	-0.23683 	4.03789e-20 7.00539 	-0.23835 	3.31524e-20 7.00226 	-0.239418 	4.08402e-21 6.99266 	-0.241395 	2.95481e-22 6.98484 	-0.24303 	-1.83259e-22 6.97729 	-0.244603 	-7.40469e-23 6.97106 	-0.246031 	0 6.96769 	-0.247155 	0 6.95787 	-0.249174 	0 6.94903 	-0.251001 	-7.22603e-21 6.94123 	-0.252623 	-2.21109e-20 6.93612 	-0.25396 	-3.43407e-20 6.93248 	-0.25514 	-4.50916e-20 6.92243 	-0.257201 	-3.16153e-20 6.91254 	-0.25922 	-1.77641e-20 6.90449 	-0.260891 	-9.38715e-22 6.9005 	-0.262138 	7.28144e-21 6.89659 	-0.263372 	1.52446e-20 6.88629 	-0.265476 	8.47398e-21 6.87591 	-0.267579 	1.70876e-21 6.8683 	-0.269274 	1.30573e-20 6.86415 	-0.270561 	3.59454e-20 6.85995 	-0.271849 	5.88332e-20 6.8494 	-0.273994 	3.47851e-20 6.83876 	-0.27614 	1.07318e-20 6.83146 	-0.277888 	-2.42699e-21 6.82702 	-0.279227 	-6.05432e-21 6.82253 	-0.280567 	-9.68361e-21 6.8117 	-0.282753 	-6.56192e-20 6.80083 	-0.284935 	-1.21184e-19 6.794 	-0.286704 	-1.2911e-19 6.78904 	-0.28813 	-9.01917e-20 6.78425 	-0.289519 	-4.63536e-20 6.77314 	-0.291744 	-9.11673e-20 6.76349 	-0.293816 	-1.16943e-19 6.75636 	-0.295629 	-1.10575e-19 6.75019 	-0.297262 	-8.49976e-20 6.74507 	-0.2987 	-3.83425e-20 6.73366 	-0.300962 	-8.54143e-20 6.72525 	-0.302921 	-8.9514e-20 6.71781 	-0.304776 	-7.89174e-20 6.71038 	-0.306619 	-6.69125e-20 6.70493 	-0.308102 	-1.40037e-20 6.69374 	-0.31035 	-1.10389e-20 6.68605 	-0.312246 	-7.8157e-21 6.67829 	-0.314141 	-4.59471e-21 6.67047 	-0.316036 	-1.3759e-21 6.66378 	-0.317721 	0 6.65387 	-0.319848 	0 6.64585 	-0.321783 	0 6.63776 	-0.323718 	0 6.6296 	-0.325652 	0 6.62157 	-0.327552 	0 6.61964 	-0.327965 	-3.95103e-22 6.61803 	-0.328347 	-1.06279e-21 6.61642 	-0.328729 	-1.73056e-21 6.6148 	-0.329111 	-2.39839e-21 6.61321 	-0.329487 	-3.05658e-21 6.60607 	-0.331074 	-5.36805e-21 6.59888 	-0.33266 	-7.67806e-21 6.59164 	-0.334247 	-9.98659e-21 6.58435 	-0.335832 	-1.22937e-20 6.57792 	-0.337301 	-1.45407e-20 6.56834 	-0.339435 	-5.27327e-22 6.5591 	-0.341435 	2.58207e-21 6.54979 	-0.343436 	5.71428e-21 6.54039 	-0.345435 	8.86938e-21 6.53297 	-0.347171 	-1.81665e-20 6.52247 	-0.349504 	-9.49716e-21 6.51282 	-0.351536 	-6.02325e-22 6.5031 	-0.353567 	8.29021e-21 6.49397 	-0.355514 	1.62145e-20 6.48667 	-0.357218 	2.13851e-20 6.47572 	-0.359583 	1.49539e-20 6.46513 	-0.361811 	1.20174e-20 6.45499 	-0.363871 	1.33646e-20 6.44667 	-0.365693 	2.43896e-20 6.43896 	-0.367428 	3.89628e-20 6.42758 	-0.369816 	4.70621e-20 6.41611 	-0.372202 	5.51584e-20 6.40596 	-0.374263 	4.9799e-20 6.39791 	-0.376026 	2.59587e-20 6.38978 	-0.37779 	2.10536e-21 6.37796 	-0.380196 	2.28179e-20 6.36605 	-0.382602 	4.35197e-20 6.35612 	-0.384712 	4.05459e-20 6.34764 	-0.386499 	9.68226e-21 6.33909 	-0.388287 	-2.1191e-20 6.32681 	-0.390709 	-1.35838e-20 6.31503 	-0.393059 	-5.35835e-21 6.30517 	-0.395164 	4.95698e-21 6.29582 	-0.397097 	9.7624e-21 6.28682 	-0.398904 	1.05588e-20 6.27406 	-0.401338 	1.22896e-20 6.26319 	-0.403535 	1.36473e-20 6.25288 	-0.405654 	1.48903e-20 6.24248 	-0.407772 	1.6142e-20 6.23292 	-0.409623 	2.14257e-20 6.22046 	-0.411973 	1.69701e-20 6.20976 	-0.414101 	1.25051e-20 6.19897 	-0.416229 	8.04474e-21 6.1881 	-0.418356 	3.58903e-21 6.17734 	-0.420426 	0 6.17399 	-0.421041 	0 6.17103 	-0.421608 	0 6.16806 	-0.422176 	0 6.16509 	-0.422744 	0 6.16217 	-0.423301 	0 6.15428 	-0.424871 	0 6.14634 	-0.426441 	0 6.13837 	-0.428011 	0 6.13034 	-0.42958 	0 6.12236 	-0.431019 	-4.20906e-21 6.11167 	-0.433316 	1.84241e-21 6.10048 	-0.435452 	5.66217e-21 6.08921 	-0.437588 	9.47787e-21 6.07785 	-0.439723 	1.32895e-20 6.0666 	-0.441548 	2.66069e-20 6.05581 	-0.443985 	4.92811e-20 6.04433 	-0.446192 	5.75301e-20 6.03256 	-0.44832 	6.09598e-20 6.02081 	-0.450274 	5.21239e-20 6.00905 	-0.452082 	3.28861e-20 5.99777 	-0.454505 	3.53999e-20 5.98638 	-0.456926 	3.79203e-20 5.97414 	-0.459005 	3.03549e-20 5.96195 	-0.460799 	1.21785e-20 5.94968 	-0.462593 	-5.99921e-21 5.93788 	-0.464995 	-3.53696e-20 5.92598 	-0.467396 	-6.47323e-20 5.91396 	-0.469505 	-7.13159e-20 5.90125 	-0.47128 	-4.75861e-20 5.88844 	-0.473054 	-2.38536e-20 5.87612 	-0.475429 	1.38378e-20 5.86375 	-0.477688 	3.54422e-20 5.85139 	-0.479741 	2.85538e-20 5.83866 	-0.481688 	9.11207e-21 5.82531 	-0.483437 	-3.38716