# vtk DataFile Version 2.0
track0
ASCII
DATASET POLYDATA
POINTS 12075 float
-0.0205 0.001 1e-05
-0.02052 0.000999985 1e-05
-0.02054 0.000999974 1e-05
-0.02056 0.000999965 1e-05
-0.02058 0.000999959 1e-05
-0.0206 0.000999956 1e-05
-0.0205 0.00367778 1e-05
-0.02052 0.00367778 1e-05
-0.02054 0.00367777 1e-05
-0.02056 0.00367777 1e-05
-0.02058 0.00367777 1e-05
-0.0206 0.00367777 1e-05
-0.0205 0.00635556 1e-05
-0.02052 0.00635555 1e-05
-0.02054 0.00635555 1e-05
-0.02056 0.00635555 1e-05
-0.02058 0.00635555 1e-05
-0.0206 0.00635555 1e-05
-0.0205 0.00903333 1e-05
-0.02052 0.00903333 1e-05
-0.02054 0.00903333 1e-05
-0.02056 0.00903333 1e-05
-0.02058 0.00903333 1e-05
-0.0206 0.00903333 1e-05
-0.0205 0.0117111 1e-05
-0.02052 0.0117111 1e-05
-0.02054 0.0117111 1e-05
-0.02056 0.0117111 1e-05
-0.02058 0.0117111 1e-05
-0.0206 0.0117111 1e-05
-0.0205 0.0143889 1e-05
-0.02052 0.0143889 1e-05
-0.02054 0.0143889 1e-05
-0.02056 0.0143889 1e-05
-0.02058 0.0143889 1e-05
-0.0206 0.0143889 1e-05
-0.0205 0.0170667 1e-05
-0.02052 0.0170667 1e-05
-0.02054 0.0170667 1e-05
-0.02056 0.0170667 1e-05
-0.02058 0.0170667 1e-05
-0.0206 0.0170667 1e-05
-0.0205 0.0197444 1e-05
-0.02052 0.0197444 1e-05
-0.02054 0.0197444 1e-05
-0.02056 0.0197444 1e-05
-0.02058 0.0197444 1e-05
-0.0206 0.0197444 1e-05
-0.0205 0.0224222 1e-05
-0.02052 0.0224222 1e-05
-0.02054 0.0224222 1e-05
-0.02056 0.0224222 1e-05
-0.02058 0.0224222 1e-05
-0.0206 0.0224222 1e-05
-0.0205 0.0251 1e-05
-0.02052 0.0250998 1e-05
-0.02054 0.0250997 1e-05
-0.02056 0.0250995 1e-05
-0.02058 0.0250995 1e-05
-0.0206 0.0250994 1e-05
-0.0205 0.001 1e-05
-0.0202034 0.00100022 1e-05
-0.0199069 0.00100067 1e-05
-0.0196103 0.00100132 1e-05
-0.0193137 0.00100219 1e-05
-0.0190172 0.00100326 1e-05
-0.0187132 0.00100466 1e-05
-0.0184093 0.00100588 1e-05
-0.0181054 0.0010071 1e-05
-0.0178015 0.00100832 1e-05
-0.0174976 0.00100953 1e-05
-0.0172058 0.00101083 1e-05
-0.016914 0.00101193 1e-05
-0.0166222 0.00101303 1e-05
-0.0163305 0.00101413 1e-05
-0.0160387 0.00101523 1e-05
-0.0157586 0.00101636 1e-05
-0.0154784 0.00101745 1e-05
-0.0151983 0.00101856 1e-05
-0.0149182 0.00101972 1e-05
-0.0146381 0.0010209 1e-05
-0.0143747 0.00102209 1e-05
-0.0141113 0.00102327 1e-05
-0.0138479 0.00102449 1e-05
-0.0135845 0.00102574 1e-05
-0.0133621 0.00102682 1e-05
-0.0133484 0.00102689 1e-05
-0.0133346 0.00102695 1e-05
-0.0133209 0.00102702 1e-05
-0.0133072 0.00102709 1e-05
-0.0132934 0.00102716 1e-05
-0.0130353 0.00102845 1e-05
-0.0127771 0.00102975 1e-05
-0.0125189 0.00103107 1e-05
-0.0122607 0.0010324 1e-05
-0.0120025 0.00103376 1e-05
-0.0117547 0.00103506 1e-05
-0.0115068 0.00103638 1e-05
-0.0112589 0.0010377 1e-05
-0.0110111 0.00103903 1e-05
-0.0107632 0.00104036 1e-05
-0.0105252 0.00104163 1e-05
-0.0102873 0.00104291 1e-05
-0.0100493 0.00104419 1e-05
-0.00981133 0.00104547 1e-05
-0.00957337 0.00104675 1e-05
-0.00934491 0.00104797 1e-05
-0.00911645 0.00104919 1e-05
-0.00888799 0.00105041 1e-05
-0.00865954 0.00105163 1e-05
-0.00843108 0.00105284 1e-05
-0.00821175 0.001054 1e-05
-0.00799242 0.00105516 1e-05
-0.00777309 0.00105632 1e-05
-0.00755376 0.00105747 1e-05
-0.00733443 0.00105861 1e-05
-0.00712387 0.0010597 1e-05
-0.0069133 0.0010608 1e-05
-0.00670273 0.00106188 1e-05
-0.00649216 0.00106297 1e-05
-0.0062816 0.00106405 1e-05
-0.00607944 0.00106507 1e-05
-0.00587729 0.0010661 1e-05
-0.00567514 0.00106713 1e-05
-0.00547298 0.00106815 1e-05
-0.00527083 0.00106916 1e-05
-0.00507675 0.00107013 1e-05
-0.00488267 0.00107109 1e-05
-0.0046886 0.00107206 1e-05
-0.00449452 0.00107302 1e-05
-0.00430044 0.00107397 1e-05
-0.00411412 0.00107488 1e-05
-0.0039278 0.00107579 1e-05
-0.00374147 0.0010767 1e-05
-0.00355515 0.00107761 1e-05
-0.00336883 0.00107851 1e-05
-0.00318995 0.00107937 1e-05
-0.00301107 0.00108023 1e-05
-0.00283219 0.00108109 1e-05
-0.00265331 0.00108194 1e-05
-0.00247443 0.0010828 1e-05
-0.0023027 0.00108361 1e-05
-0.00213097 0.00108443 1e-05
-0.00195924 0.00108525 1e-05
-0.0017875 0.00108607 1e-05
-0.00161577 0.00108688 1e-05
-0.0014509 0.00108766 1e-05
-0.00128603 0.00108844 1e-05
-0.00112116 0.00108923 1e-05
-0.000956289 0.00109001 1e-05
-0.000791418 0.0010908 1e-05
-0.000633135 0.00109156 1e-05
-0.000474851 0.00109232 1e-05
-0.000316567 0.00109309 1e-05
-0.000158284 0.00109385 1e-05
0 0.00109462 1e-05
0.000105677 0.00109513 1e-05
0.000211355 0.00109564 1e-05
0.000317032 0.00109615 1e-05
0.00042271 0.00109666 1e-05
0.000528387 0.00109716 1e-05
0.000634886 0.00109766 1e-05
0.000741385 0.00109816 1e-05
0.000847885 0.00109866 1e-05
0.000954384 0.00109916 1e-05
0.00106088 0.00109965 1e-05
0.00116821 0.00110013 1e-05
0.00127554 0.00110062 1e-05
0.00138286 0.00110109 1e-05
0.00149019 0.00110156 1e-05
0.00159752 0.00110203 1e-05
0.00170568 0.00110248 1e-05
0.00181384 0.00110294 1e-05
0.001922 0.00110338 1e-05
0.00203016 0.00110381 1e-05
0.00213833 0.00110424 1e-05
0.00224733 0.00110466 1e-05
0.00235633 0.00110507 1e-05
0.00246533 0.00110547 1e-05
0.00257434 0.00110587 1e-05
0.00268334 0.00110625 1e-05
0.00279319 0.00110663 1e-05
0.00290304 0.001107 1e-05
0.00301289 0.00110737 1e-05
0.00312274 0.00110773 1e-05
0.00323259 0.00110807 1e-05
0.00334329 0.00110841 1e-05
0.003454 0.00110875 1e-05
0.0035647 0.00110908 1e-05
0.0036754 0.0011094 1e-05
0.00378611 0.00110971 1e-05
0.00389767 0.00111001 1e-05
0.00400924 0.00111031 1e-05
0.0041208 0.0011106 1e-05
0.00423237 0.00111088 1e-05
0.00434393 0.00111115 1e-05
0.00445636 0.00111142 1e-05
0.00456879 0.00111168 1e-05
0.00468123 0.00111193 1e-05
0.00479366 0.00111218 1e-05
0.00490609 0.00111241 1e-05
0.0050194 0.00111264 1e-05
0.0051327 0.00111286 1e-05
0.00524601 0.00111307 1e-05
0.00535932 0.00111328 1e-05
0.00547262 0.00111348 1e-05
0.00558681 0.00111367 1e-05
0.005701 0.00111385 1e-05
0.00581518 0.00111403 1e-05
0.00592937 0.0011142 1e-05
0.00604356 0.00111436 1e-05
0.00615863 0.00111451 1e-05
0.00627371 0.00111466 1e-05
0.00638878 0.0011148 1e-05
0.00650386 0.00111493 1e-05
0.00661893 0.00111505 1e-05
0.0067349 0.00111517 1e-05
0.00685087 0.00111527 1e-05
0.00696684 0.00111538 1e-05
0.00708281 0.00111547 1e-05
0.00719878 0.00111555 1e-05
0.00731487 0.00111563 1e-05
0.00743095 0.0011157 1e-05
0.00754704 0.00111576 1e-05
0.00766313 0.00111581 1e-05
0.00777264 0.00111586 1e-05
0.00777474 0.00111586 1e-05
0.00777684 0.00111586 1e-05
0.00777894 0.00111586 1e-05
0.00778104 0.00111586 1e-05
0.00778313 0.00111586 1e-05
0.00790091 0.0011159 1e-05
0.00801869 0.00111593 1e-05
0.00813647 0.00111595 1e-05
0.00825425 0.00111597 1e-05
0.00837203 0.00111597 1e-05
0.00849073 0.00111597 1e-05
0.00860942 0.00111596 1e-05
0.00872812 0.00111594 1e-05
0.00884682 0.00111591 1e-05
0.00896551 0.00111588 1e-05
0.00908513 0.00111582 1e-05
0.00920475 0.00111577 1e-05
0.00932437 0.00111571 1e-05
0.00944398 0.00111564 1e-05
0.0095636 0.00111557 1e-05
0.00968415 0.00111547 1e-05
0.0098047 0.00111537 1e-05
0.00992525 0.00111527 1e-05
0.0100458 0.00111516 1e-05
0.0101663 0.00111504 1e-05
0.0102878 0.0011149 1e-05
0.0104093 0.00111476 1e-05
0.0105308 0.00111461 1e-05
0.0106523 0.00111445 1e-05
0.0107738 0.00111428 1e-05
0.0108962 0.0011141 1e-05
0.0110186 0.00111391 1e-05
0.0111411 0.00111372 1e-05
0.0112635 0.00111351 1e-05
0.0113859 0.0011133 1e-05
0.0115093 0.00111306 1e-05
0.0116327 0.00111283 1e-05
0.0117561 0.00111259 1e-05
0.0118795 0.00111234 1e-05
0.0120028 0.00111208 1e-05
0.0121272 0.00111179 1e-05
0.0122515 0.00111151 1e-05
0.0123759 0.00111122 1e-05
0.0125002 0.00111092 1e-05
0.0126245 0.00111062 1e-05
0.0127498 0.00111028 1e-05
0.0128752 0.00110995 1e-05
0.0130005 0.00110961 1e-05
0.0131258 0.00110926 1e-05
0.0132511 0.0011089 1e-05
0.0133774 0.00110852 1e-05
0.0135036 0.00110814 1e-05
0.0136299 0.00110775 1e-05
0.0137562 0.00110735 1e-05
0.0138825 0.00110694 1e-05
0.0140098 0.0011065 1e-05
0.014137 0.00110607 1e-05
0.0142643 0.00110562 1e-05
0.0143915 0.00110517 1e-05
0.0145188 0.00110471 1e-05
0.0146471 0.00110422 1e-05
0.0147753 0.00110374 1e-05
0.0149036 0.00110324 1e-05
0.0150318 0.00110273 1e-05
0.0151601 0.00110221 1e-05
0.0152893 0.00110168 1e-05
0.0154186 0.00110114 1e-05
0.0155478 0.00110058 1e-05
0.0156771 0.00110002 1e-05
0.0158063 0.00109945 1e-05
0.0159366 0.00109886 1e-05
0.0160668 0.00109827 1e-05
0.0161971 0.00109766 1e-05
0.0163274 0.00109704 1e-05
0.0164576 0.00109642 1e-05
0.0165889 0.00109578 1e-05
0.0167201 0.00109513 1e-05
0.0168514 0.00109446 1e-05
0.0169827 0.00109379 1e-05
0.0171139 0.00109311 1e-05
0.0172462 0.00109242 1e-05
0.0173785 0.00109171 1e-05
0.0175108 0.00109099 1e-05
0.0176431 0.00109026 1e-05
0.0177754 0.00108952 1e-05
0.0179087 0.00108878 1e-05
0.018042 0.00108802 1e-05
0.0181753 0.00108724 1e-05
0.0183087 0.00108645 1e-05
0.018442 0.00108566 1e-05
0.0185763 0.00108487 1e-05
0.0187107 0.00108405 1e-05
0.018845 0.00108321 1e-05
0.0189794 0.00108237 1e-05
0.0191137 0.00108152 1e-05
0.0192491 0.00108067 1e-05
0.0193845 0.0010798 1e-05
0.0195199 0.0010789 1e-05
0.0196553 0.001078 1e-05
0.0197907 0.0010771 1e-05
0.0199272 0.00107619 1e-05
0.0200636 0.00107526 1e-05
0.0202001 0.00107431 1e-05
0.0203365 0.00107335 1e-05
0.020473 0.00107239 1e-05
0.0206105 0.00107143 1e-05
0.020748 0.00107045 1e-05
0.0208855 0.00106944 1e-05
0.021023 0.00106842 1e-05
0.0211606 0.0010674 1e-05
0.0212991 0.00106639 1e-05
0.0214377 0.00106535 1e-05
0.0215763 0.00106428 1e-05
0.0217149 0.0010632 1e-05
0.0218535 0.00106213 1e-05
0.0219931 0.00106106 1e-05
0.0221328 0.00105996 1e-05
0.0222724 0.00105883 1e-05
0.0224121 0.0010577 1e-05
0.0225517 0.00105657 1e-05
0.0226925 0.00105544 1e-05
0.0228332 0.00105428 1e-05
0.022974 0.0010531 1e-05
0.0231147 0.0010519 1e-05
0.0232555 0.00105071 1e-05
0.0233973 0.00104953 1e-05
0.0235391 0.00104831 1e-05
0.023681 0.00104707 1e-05
0.0238228 0.00104581 1e-05
0.0239647 0.00104457 1e-05
0.0241076 0.00104332 1e-05
0.0242505 0.00104205 1e-05
0.0243935 0.00104074 1e-05
0.0245364 0.00103943 1e-05
0.0246794 0.00103812 1e-05
0.0248234 0.00103682 1e-05
0.0249675 0.00103548 1e-05
0.0251115 0.00103412 1e-05
0.0252556 0.00103274 1e-05
[...]
POINT_DATA 12075
 FIELD attributes 2
p 1 12075 float
-5.65256 -5.64925 -5.64593 -5.64262 -5.6393 -5.63599
-5.80491 -5.80489 -5.80486 -5.80484 -5.80482 -5.8048
-5.97901 -5.97888 -5.97876 -5.97864 -5.97851 -5.97841
-6.07232 -6.07227 -6.07221 -6.07216 -6.07211 -6.07205
-6.11743 -6.11732 -6.11721 -6.11709 -6.11698 -6.11687
-6.12403 -6.12387 -6.12371 -6.12355 -6.12339 -6.12323
-6.09718 -6.0971 -6.09703 -6.09696 -6.09689 -6.09682
-6.02768 -6.02764 -6.0276 -6.02756 -6.02752 -6.02748
-5.90645 -5.90645 -5.90646 -5.90646 -5.90647 -5.90648
-3.69386 -3.71319 -3.7324 -3.75147 -3.7704 -3.7892
-5.65256 -5.65185 -5.64823 -5.64453 -5.64076 -5.63238 -5.64622 -5.66119 -5.67616 -5.69112 -5.71554 -5.73729 -5.76722 -5.79714 -5.82707 -5.8598 -5.87544 -5.89713 -5.91881 -5.9405 -5.96381 -5.98268 -6.00355 -6.02442 -6.0453 -6.06294 -6.06402 -6.06511 -6.0662 -6.06728 -6.06836 -6.09 -6.11163 -6.13327 -6.15491 -6.17627 -6.195 -6.21354 -6.23208 -6.25061 -6.26858 -6.28416 -6.29946 -6.31476 -6.33006 -6.34481 -6.35853 -6.372 -6.38546 -6.39893 -6.41195 -6.42458 -6.43695 -6.44931 -6.46168 -6.47362 -6.48531 -6.4967 -6.50809 -6.51948 -6.53044 -6.54127 -6.55181 -6.56235 -6.57289 -6.58307 -6.59322 -6.60307 -6.61293 -6.62279 -6.63231 -6.64189 -6.65124 -6.66059 -6.66994 -6.67907 -6.68825 -6.69708 -6.70591 -6.71474 -6.72337 -6.73225 -6.74123 -6.7502 -6.75918 -6.76842 -6.77792 -6.78705 -6.79619 -6.80532 -6.81446 -6.82452 -6.83591 -6.84729 -6.85868 -6.87079 -6.88225 -6.89526 -6.90827 -6.92127 -6.93389 -6.94538 -6.95659 -6.96779 -6.979 -6.98907 -6.99746 -7.00654 -7.01561 -7.02469 -7.03427 -7.04284 -7.05162 -7.0604 -7.06918 -7.078 -7.08649 -7.09387 -7.10125 -7.10864 -7.11505 -7.12214 -7.12787 -7.13361 -7.13934 -7.14392 -7.14983 -7.15463 -7.15944 -7.16424 -7.16805 -7.17304 -7.17711 -7.18119 -7.18526 -7.18853 -7.19253 -7.19579 -7.19905 -7.20231 -7.20499 -7.20803 -7.21052 -7.21302 -7.21551 -7.21765 -7.22003 -7.22205 -7.22407 -7.22609 -7.22793 -7.23 -7.23186 -7.23371 -7.23556 -7.23732 -7.23923 -7.241 -7.24277 -7.24454 -7.24627 -7.24802 -7.24971 -7.2514 -7.25309 -7.25468 -7.25471 -7.25474 -7.25477 -7.2548 -7.25483 -7.2565 -7.25817 -7.25984 -7.26151 -7.26335 -7.26485 -7.26654 -7.26822 -7.26991 -7.272 -7.27331 -7.27507 -7.27683 -7.27859 -7.28107 -7.28221 -7.2841 -7.286 -7.28789 -7.29085 -7.29181 -7.29384 -7.29586 -7.29788 -7.30133 -7.30208 -7.30421 -7.30633 -7.30846 -7.31234 -7.31291 -7.31514 -7.31737 -7.31961 -7.32392 -7.32437 -7.32673 -7.32909 -7.33145 -7.33616 -7.33652 -7.33902 -7.34151 -7.34401 -7.34906 -7.34938 -7.35201 -7.35463 -7.35726 -7.3626 -7.36293 -7.36568 -7.36844 -7.37128 -7.37676 -7.37733 -7.38004 -7.38293 -7.38616 -7.39155 -7.39247 -7.39509 -7.3981 -7.40168 -7.40697 -7.40824 -7.41082 -7.41396 -7.41784 -7.42301 -7.42463 -7.4272 -7.43047 -7.43459 -7.43965 -7.4416 -7.44421 -7.4476 -7.45192 -7.45687 -7.45914 -7.46182 -7.46533 -7.4698 -7.47466 -7.47723 -7.48 -7.48363 -7.48822 -7.493 -7.49583 -7.49873 -7.50247 -7.50715 -7.51187 -7.51495 -7.51803 -7.52189 -7.52657 -7.53125 -7.53456 -7.53787 -7.54184 -7.54648 -7.55112 -7.55466 -7.5582 -7.56227 -7.56687 -7.57146 -7.57521 -7.57895 -7.5831 -7.58765 -7.5922 -7.59612 -7.60003 -7.60424 -7.60876 -7.61328 -7.61732 -7.62137 -7.62564 -7.63014 -7.63463 -7.63877 -7.64291 -7.64724 -7.65173 -7.65623 -7.66044 -7.66466 -7.66904 -7.67354 -7.67806 -7.68233 -7.68662 -7.69104 -7.69556 -7.70009 -7.7044 -7.70876 -7.71321 -7.71773 -7.72229 -7.72663 -7.73103 -7.7355 -7.74003 -7.7446 -7.74896 -7.75339 -7.75788 -7.7624 -7.76698 -7.77134 -7.7758 -7.7803 -7.7848 -7.78938 -7.79374 -7.79821 -7.80269 -7.80718 -7.81175 -7.81609 -7.82056 -7.82502 -7.82949 -7.83402 -7.83836 -7.84279 -7.84723 -7.85166 -7.85615 -7.86046 -7.86486 -7.86925 -7.87365 -7.87807 -7.88235 -7.88669 -7.89103 -7.89537 -7.89973 -7.90396 -7.90823 -7.9125 -7.91676 -7.92104 -7.92426 -7.9275 -7.93074 -7.93398 -7.93711 -7.93807 -7.93904 -7.94 -7.94096 -7.94192 -7.94601 -7.95009 -7.95417 -7.95826 -7.96236 -7.96633 -7.9703 -7.97427 -7.97824 -7.98223 -7.98608 -7.98993 -7.99377 -7.99762 -8.00148 -8.00521 -8.00891 -8.0126 -8.0163 -8.02 -8.02358 -8.0271 -8.03062 -8.03413 -8.03764 -8.04105 -8.04438 -8.04769 -8.05101 -8.0543 -8.05753 -8.06066 -8.06377 -8.06687 -8.06993 -8.07295 -8.07589 -8.07877 -8.08161 -8.08442 -8.0872 -8.08993 -8.09255 -8.0951 -8.09763 -8.10015 -8.10265 -8.10498 -8.10721 -8.10943 -8.11166 -8.11389 -8.11591 -8.1178 -8.11968 -8.12158 -8.12349 -8.1252 -8.12671 -8.12823 -8.12979 -8.13134 -8.1327 -8.13382 -8.13494 -8.13611 -8.13729 -8.13827 -8.13896 -8.13966 -8.14043 -8.14118 -8.14174 -8.14202 -8.14227 -8.1426 -8.14287 -8.14296 -8.14286 -8.14262 -8.14248 -8.14221 -8.14181 -8.14129 -8.14054 -8.1399 -8.13903 -8.1381 -8.13715 -8.13585 -8.13466 -8.13316 -8.13167 -8.13018 -8.12838 -8.12652 -8.12442 -8.12233 -8.12024 -8.11794 -8.11537 -8.11263 -8.1099 -8.10718 -8.10437 -8.10235 -8.10027 -8.09819 -8.09612 -8.09413 -8.0928 -8.09148 -8.09016 -8.08884 -8.08746 -8.08346 -8.07939 -8.07533 -8.07127 -8.06701 -8.06244 -8.05762 -8.0528 -8.04799 -8.04281 -8.03766 -8.03205 -8.02644 -8.02084 -8.01468 -8.00884 -8.00249 -7.99606 -7.98944 -7.98242 -7.97573 -7.96874 -7.96144 -7.95373 -7.94581 -7.93823 -7.93058 -7.92237 -7.91351 -7.90464 -7.89613 -7.88762 -7.87843 -7.86856 -7.8587 -7.84922 -7.83974 -7.82957 -7.81868 -7.80778 -7.79729 -7.78679 -7.77554 -7.76365 -7.75169 -7.74014 -7.7283 -7.71596 -7.70327 -7.69021 -7.67757 -7.6643 -7.65084 -7.63735 -7.62313 -7.60924 -7.59459 -7.57995 -7.56532 -7.55025 -7.53482 -7.51896 -7.5031 -7.48726 -7.47134 -7.4681 -7.46478 -7.46147 -7.45815 -7.45489 -7.44122 -7.42755 -7.4139 -7.40024 -7.38632 -7.36838 -7.35016 -7.33196 -7.31376 -7.29491 -7.27605 -7.25652 -7.237 -7.21728 -7.19692 -7.17674 -7.15626 -7.1354 -7.11391 -7.09217 -7.07063 -7.04911 -7.02679 -7.00364 -6.98051 -6.95757 -6.93465 -6.9109 -6.88634 -6.86177 -6.83742 -6.81286 -6.78756 -6.76185 -6.73583 -6.71004 -6.6835 -6.65673 -6.62998 -6.60256 -6.575 -6.54674 -6.51849 -6.49025 -6.46187 -6.4541 -6.44617 -6.43825 -6.43032 -6.42256 -6.40079 -6.37902 -6.35726 -6.33551 -6.31345 -6.28258 -6.25145 -6.22033 -6.18922 -6.15737 -6.12523 -6.09272 -6.0601 -6.02707 -5.99367 -5.96001 -5.92637 -5.89215 -5.85725 -5.82234 -5.78717 -5.75201 -5.71619 -5.67979 -5.64339 -5.60671 -5.56977 -5.53233 -5.49475 -5.45687 -5.41871 -5.37979 -5.34088 -5.30198 -5.26287 -5.24184 -5.22055 -5.19925 -5.17797 -5.15745 -5.13829 -5.11913 -5.09997 -5.08081 -5.0614 -5.01992 -4.97826 -4.93661 -4.89498 -4.85256 -4.80992 -4.76701 -4.72398 -4.68046 -4.63665 -4.59263 -4.54863 -4.50411 -4.459 -4.41389 -4.36854 -4.32318 -4.27716 -4.2309 -4.18453 -4.13792 -4.09082 -4.04357 -3.99634 -3.94889 -3.91771 -3.88623 -3.85475 -3.82329 -3.79311 -3.77597 -3.75882 -3.74168 -3.72454 -3.70722 -3.65791 -3.60853 -3.55916 -3.5098 -3.45982 -3.40963 -3.35935 -3.30899 -3.25822 -3.20731 -3.15617 -3.10505 -3.05361 -3.00189 -2.95014 -2.89814 -2.84602 -2.79364 -2.74126 -2.68878 -2.63597 -2.5829 -2.52985 -2.4768 -2.42373 -2.42316 -2.42259 -2.42201 -2.42144 -2.42086 -2.36778 -2.31471 -2.26165 -2.20861 -2.15529 -2.10112 -2.04699 -1.99288 -1.93862 -1.88426 -1.82966 -1.77507 -1.72047 -1.66584 -1.61118 -1.55627 -1.50134 -1.44637 -1.39144 -1.3366 -1.28855 -1.24051 -1.19248 -1.14446 -1.0984 -1.09093 -1.08345 -1.07598 -1.0685 -1.06102 -1.00573 -0.95048 -0.895246 -0.840023 -0.784789 -0.729337 -0.674014 -0.618843 -0.563763 -0.508662 -0.453322 -0.397995 -0.342817 -0.287978 -0.233107 -0.177977 -0.123019 -0.0681372 -0.0132654 0.0414301 0.0625402 0.0835439 0.104546 0.125547 0.146263 0.179971 0.213675 0.247376 0.281074 0.314669 0.369316 0.423617 0.477909 0.532072 0.586131 0.640355 0.69457 0.748391 0.801879 0.855395 0.909087 0.962654 1.01601 1.06931 1.12223 1.15984 1.1972 1.23456 1.27191 1.30862 1.32422 1.33982 1.35542 1.37101 1.38654 1.4391 1.49145 1.5438 1.59607 1.6481 1.70023 1.75234 1.80388 1.8551 1.90634 1.95769 2.009 2.05992 2.11059 2.16098 2.20826 2.25513 2.30199 2.34886 2.39519 2.39854 2.40188 2.40523 2.40857 2.41189 2.46148 2.511 2.56053 2.61005 2.65918 2.70837 2.75735 2.80598 2.8542 2.90242 2.9507 2.99899 3.04687 3.09424 3.14152 3.18889 3.23585 3.28276 3.32967 3.37643 3.38388 3.39126 3.39864 3.40602 3.4134 3.45225 3.4911 3.52996 3.56881 3.60734 3.65324 3.69872 3.74406 3.78908 3.83399 3.87896 3.92392 3.96846 4.01243 4.05638 4.10041 4.14418 4.18779 4.2314 4.27458 4.29487 4.31496 4.33506 4.35515 4.37536 4.39808 4.42081 4.44353 4.46626 4.48879 4.53128 4.57337 4.61545 4.65738 4.69906 4.74082 4.78257 4.82379 4.86464 4.90547 4.9464 4.98724 5.0278 5.06819 5.10821 5.14537 5.18223 5.2191 5.25596 5.29342 5.29624 5.29906 5.30188 5.3047 5.3075 5.34682 5.3861 5.42537 5.46465 5.5036 5.54266 5.58148 5.62007 5.65841 5.69669 5.73511 5.77353 5.81168 5.84938 5.88706 5.92489 5.96258 6.00017 6.03776 6.07502 6.09532 6.11551 6.13571 6.1559 6.17625 6.19321 6.21016 6.22711 6.24407 6.26093 6.29801 6.33485 6.37169 6.40848 6.44515 6.48196 6.51878 6.55527 6.59165 6.62801 6.66453 6.70103 6.73748 6.77378 6.80994 6.84623 6.88251 6.91878 6.95506 6.99133 6.99216 6.993 6.99383 6.99467 6.9955 7.03093 7.06636 7.10178 7.13721 7.17265 7.20909 7.24543 7.28168 7.31801 7.35435 7.39083 7.42732 7.4639 7.50039 7.53689 7.57351 7.61028 7.64711 7.68394 7.72074 7.7334 7.74614 7.75889 7.77164 7.78431 7.80871 7.8331 7.85749 7.88188 7.90644 7.94394 7.98144 8.01894 8.05663 8.09446 8.1324 8.17034 8.20852 8.24689 8.28527 8.32374 8.36247 8.40138 8.4403 8.47929 8.49413 8.50915 8.52417 8.5392 8.55406 8.57859 8.60312 8.62766 8.6522 8.67704 8.7171 8.7573 8.79752 8.83811 8.87889 8.91971 8.96054 9.00182 9.04344 9.08508 9.12673 9.1689 9.21119 9.25348 9.29583 9.2993 9.30281 9.30633 9.30985 9.31336 9.35287 9.39238 9.4319 9.47147 9.5116 9.55528 9.599 9.64302 9.68761 9.73222 9.7768 9.82155 9.86679 9.91205 9.95757 9.9807 10.0041 10.0276 10.051 10.0744 10.097 10.1195 10.1421 10.1648 10.1877 10.2342 10.2809 10.3276 10.3748 10.4222 10.4694 10.5167 10.5644 10.6124 10.6604 10.6988 10.7374 10.7761 10.8148 10.8544 10.8638 10.8733 10.8827 10.8922 10.9017 10.9504 10.9991 11.0478 11.0967 11.1458 11.1948 11.2438 11.2926 11.3413 11.3898 11.4381 11.4875 11.5375 11.5874 11.6375 11.6492 11.6593 11.6692 11.6792 11.6895 11.7247 11.76 11.7952 11.8301 11.8599 11.8983 11.9423 11.9893 12.0483 12.11 12.1712 12.2318 12.2692 12.3035 12.3304 12.341 12.3533 12.3668 12.3803 12.3947 12.4125 12.4303 12.4481 12.4675 12.4893 12.526 12.5626 12.5989 12.6354 12.6716 12.7075 12.7414 12.7736 12.8057 12.8371 12.8402 12.843 12.8458 12.8485 12.8514 12.8768 12.9022 12.9275 12.952 12.9746 12.9984 13.0221 13.0436 13.063 13.0822 13.0998 13.1152 13.1292 13.143 13.1558 13.1579 13.1593 13.1606 13.1618 13.1631 13.1694 13.1756 13.1817 13.1875 13.1907 13.1919 13.1915 13.1896 13.1837 13.1773 13.1675 13.1575 13.1434 13.1261 13.1083 13.0868 13.0606 13.0335 13.0062 12.9773 12.9659 12.9529 12.94 12.927 12.9126 12.8869 12.8611 12.8352 12.8093 12.7805 12.7312 12.6784 12.6253 12.5702 12.5106 12.4462 12.3811 12.3114 12.2353 12.159 12.0776 11.996 11.9082 11.8142 11.72 11.6204 11.5184 11.4113 11.3016 11.1889 11.0702 10.9442 10.817 10.6898 10.5573 10.4142 10.2665 10.1187 9.97089 9.8218 9.75889 9.69394 9.629 9.56405 9.48875 9.38428 9.27978 9.17524 9.07067 8.96295 8.77066 8.57717 8.38362 8.19001 7.9933 7.78174 7.55253 7.32318 7.09371 6.83805 6.57281 6.32423 6.07783 5.83687 5.61055 5.37641 5.09052 4.76243 4.37437 3.94301 3.49607 3.08842 2.80868 2.66889 2.56029 2.4475 2.33495 1.81798 0.908317 0