# vtk DataFile Version 2.0
track0
ASCII
DATASET POLYDATA
POINTS 12040 float
-0.0205 0.001 1e-05
-0.02052 0.000999985 1e-05
-0.02054 0.000999974 1e-05
-0.02056 0.000999965 1e-05
-0.02058 0.000999959 1e-05
-0.0206 0.000999956 1e-05
-0.0205 0.00367778 1e-05
-0.02052 0.00367778 1e-05
-0.02054 0.00367777 1e-05
-0.02056 0.00367777 1e-05
-0.02058 0.00367777 1e-05
-0.0206 0.00367777 1e-05
-0.0205 0.00635556 1e-05
-0.02052 0.00635555 1e-05
-0.02054 0.00635555 1e-05
-0.02056 0.00635555 1e-05
-0.02058 0.00635555 1e-05
-0.0206 0.00635555 1e-05
-0.0205 0.00903333 1e-05
-0.02052 0.00903333 1e-05
-0.02054 0.00903333 1e-05
-0.02056 0.00903333 1e-05
-0.02058 0.00903333 1e-05
-0.0206 0.00903333 1e-05
-0.0205 0.0117111 1e-05
-0.02052 0.0117111 1e-05
-0.02054 0.0117111 1e-05
-0.02056 0.0117111 1e-05
-0.02058 0.0117111 1e-05
-0.0206 0.0117111 1e-05
-0.0205 0.0143889 1e-05
-0.02052 0.0143889 1e-05
-0.02054 0.0143889 1e-05
-0.02056 0.0143889 1e-05
-0.02058 0.0143889 1e-05
-0.0206 0.0143889 1e-05
-0.0205 0.0170667 1e-05
-0.02052 0.0170667 1e-05
-0.02054 0.0170667 1e-05
-0.02056 0.0170667 1e-05
-0.02058 0.0170667 1e-05
-0.0206 0.0170667 1e-05
-0.0205 0.0197444 1e-05
-0.02052 0.0197444 1e-05
-0.02054 0.0197444 1e-05
-0.02056 0.0197444 1e-05
-0.02058 0.0197444 1e-05
-0.0206 0.0197444 1e-05
-0.0205 0.0224222 1e-05
-0.02052 0.0224222 1e-05
-0.02054 0.0224222 1e-05
-0.02056 0.0224222 1e-05
-0.02058 0.0224222 1e-05
-0.0206 0.0224222 1e-05
-0.0205 0.0251 1e-05
-0.02052 0.0250998 1e-05
-0.02054 0.0250997 1e-05
-0.02056 0.0250995 1e-05
-0.02058 0.0250995 1e-05
-0.0206 0.0250994 1e-05
-0.0205 0.001 1e-05
-0.0202034 0.00100022 1e-05
-0.0199069 0.00100067 1e-05
-0.0196103 0.00100133 1e-05
-0.0193137 0.00100219 1e-05
-0.0190172 0.00100326 1e-05
-0.0187132 0.00100467 1e-05
-0.0184093 0.00100589 1e-05
-0.0181054 0.00100711 1e-05
-0.0178015 0.00100832 1e-05
-0.0174976 0.00100954 1e-05
-0.0172058 0.00101083 1e-05
-0.016914 0.00101193 1e-05
-0.0166222 0.00101303 1e-05
-0.0163305 0.00101413 1e-05
-0.0160387 0.00101523 1e-05
-0.0157586 0.00101636 1e-05
-0.0154784 0.00101744 1e-05
-0.0151983 0.00101856 1e-05
-0.0149182 0.00101971 1e-05
-0.0146381 0.0010209 1e-05
-0.0143744 0.00102209 1e-05
-0.0141108 0.00102327 1e-05
-0.0138471 0.00102449 1e-05
-0.0135834 0.00102574 1e-05
-0.0133608 0.00102682 1e-05
-0.0133473 0.00102688 1e-05
-0.0133338 0.00102695 1e-05
-0.0133204 0.00102702 1e-05
-0.0133069 0.00102708 1e-05
-0.0132934 0.00102715 1e-05
-0.0130353 0.00102844 1e-05
-0.0127771 0.00102974 1e-05
-0.0125189 0.00103106 1e-05
-0.0122607 0.00103239 1e-05
-0.0120025 0.00103374 1e-05
-0.0117547 0.00103505 1e-05
-0.0115068 0.00103637 1e-05
-0.0112589 0.00103769 1e-05
-0.0110111 0.00103901 1e-05
-0.0107632 0.00104034 1e-05
-0.0105252 0.00104161 1e-05
-0.0102873 0.00104289 1e-05
-0.0100493 0.00104417 1e-05
-0.00981133 0.00104545 1e-05
-0.00957337 0.00104672 1e-05
-0.00934491 0.00104794 1e-05
-0.00911645 0.00104917 1e-05
-0.00888799 0.00105038 1e-05
-0.00865954 0.0010516 1e-05
-0.00843108 0.00105281 1e-05
-0.00821175 0.00105397 1e-05
-0.00799242 0.00105512 1e-05
-0.00777309 0.00105628 1e-05
-0.00755376 0.00105742 1e-05
-0.00733443 0.00105857 1e-05
-0.00712387 0.00105966 1e-05
-0.0069133 0.00106075 1e-05
-0.00670273 0.00106183 1e-05
-0.00649216 0.00106291 1e-05
-0.0062816 0.00106399 1e-05
-0.00607944 0.00106501 1e-05
-0.00587729 0.00106604 1e-05
-0.00567514 0.00106706 1e-05
-0.00547298 0.00106807 1e-05
-0.00527083 0.00106908 1e-05
-0.00507675 0.00107005 1e-05
-0.00488267 0.00107101 1e-05
-0.0046886 0.00107197 1e-05
-0.00449452 0.00107292 1e-05
-0.00430044 0.00107387 1e-05
-0.00411412 0.00107477 1e-05
-0.0039278 0.00107568 1e-05
-0.00374147 0.00107658 1e-05
-0.00355515 0.00107748 1e-05
-0.00336883 0.00107837 1e-05
-0.00318995 0.00107922 1e-05
-0.00301107 0.00108007 1e-05
-0.00283219 0.00108092 1e-05
-0.00265331 0.00108177 1e-05
-0.00247443 0.00108261 1e-05
-0.0023027 0.00108341 1e-05
-0.00213097 0.00108422 1e-05
-0.00195924 0.00108502 1e-05
-0.0017875 0.00108582 1e-05
-0.00161577 0.00108662 1e-05
-0.0014509 0.00108738 1e-05
-0.00128603 0.00108814 1e-05
-0.00112116 0.0010889 1e-05
-0.000956289 0.00108966 1e-05
-0.000791418 0.00109042 1e-05
-0.000633135 0.00109114 1e-05
-0.000474851 0.00109187 1e-05
-0.000316567 0.0010926 1e-05
-0.000158284 0.00109332 1e-05
0 0.00109404 1e-05
0.000105677 0.00109452 1e-05
0.000211355 0.00109499 1e-05
0.000317032 0.00109547 1e-05
0.00042271 0.00109594 1e-05
0.000528387 0.0010964 1e-05
0.000634886 0.00109687 1e-05
0.000741385 0.00109733 1e-05
0.000847885 0.00109779 1e-05
0.000954384 0.00109825 1e-05
0.00106088 0.0010987 1e-05
0.00116821 0.00109915 1e-05
0.00127554 0.0010996 1e-05
0.00138286 0.00110004 1e-05
0.00149019 0.00110048 1e-05
0.00159752 0.00110091 1e-05
0.00170568 0.00110133 1e-05
0.00181384 0.00110176 1e-05
0.001922 0.00110217 1e-05
0.00203016 0.00110257 1e-05
0.00213833 0.00110297 1e-05
0.00224733 0.00110336 1e-05
0.00235633 0.00110374 1e-05
0.00246533 0.00110412 1e-05
0.00257434 0.00110448 1e-05
0.00268334 0.00110484 1e-05
0.00279319 0.00110519 1e-05
0.00290304 0.00110553 1e-05
0.00301289 0.00110587 1e-05
0.00312274 0.0011062 1e-05
0.00323259 0.00110652 1e-05
0.00334329 0.00110683 1e-05
0.003454 0.00110714 1e-05
0.0035647 0.00110744 1e-05
0.0036754 0.00110774 1e-05
0.00378611 0.00110802 1e-05
0.00389767 0.0011083 1e-05
0.00400924 0.00110857 1e-05
0.0041208 0.00110884 1e-05
0.00423237 0.0011091 1e-05
0.00434393 0.00110935 1e-05
0.00445636 0.00110959 1e-05
0.00456879 0.00110982 1e-05
0.00468123 0.00111005 1e-05
0.00479366 0.00111027 1e-05
0.00490609 0.00111049 1e-05
0.0050194 0.00111069 1e-05
0.0051327 0.00111089 1e-05
0.00524601 0.00111108 1e-05
0.00535932 0.00111127 1e-05
0.00547262 0.00111144 1e-05
0.00558681 0.00111161 1e-05
0.005701 0.00111177 1e-05
0.00581518 0.00111193 1e-05
0.00592937 0.00111207 1e-05
0.00604356 0.00111222 1e-05
0.00615863 0.00111235 1e-05
0.00627371 0.00111247 1e-05
0.00638878 0.00111259 1e-05
0.00650386 0.0011127 1e-05
0.00661893 0.00111281 1e-05
0.0067349 0.0011129 1e-05
0.00685087 0.00111299 1e-05
0.00696684 0.00111307 1e-05
0.00708281 0.00111315 1e-05
0.00719878 0.00111322 1e-05
0.00727059 0.00111325 1e-05
0.0073424 0.00111329 1e-05
0.00741421 0.00111332 1e-05
0.00748602 0.00111334 1e-05
0.00755544 0.00111337 1e-05
0.00760098 0.00111338 1e-05
0.00764652 0.0011134 1e-05
0.00769206 0.00111341 1e-05
0.0077376 0.00111342 1e-05
0.00778313 0.00111343 1e-05
0.00790091 0.00111345 1e-05
0.00801869 0.00111346 1e-05
0.00813647 0.00111347 1e-05
0.00825425 0.00111347 1e-05
0.00837203 0.00111346 1e-05
0.00849073 0.00111344 1e-05
0.00860942 0.00111341 1e-05
0.00872812 0.00111338 1e-05
0.00884682 0.00111334 1e-05
0.00896551 0.00111329 1e-05
0.00908513 0.00111323 1e-05
0.00920475 0.00111316 1e-05
0.00932437 0.00111309 1e-05
0.00944398 0.00111301 1e-05
0.0095636 0.00111292 1e-05
0.00968415 0.00111282 1e-05
0.0098047 0.00111271 1e-05
0.00992525 0.0011126 1e-05
0.0100458 0.00111248 1e-05
0.0101663 0.00111235 1e-05
0.0102878 0.0011122 1e-05
0.0104093 0.00111205 1e-05
0.0105308 0.00111189 1e-05
0.0106523 0.00111173 1e-05
0.0107738 0.00111156 1e-05
0.0108962 0.00111136 1e-05
0.0110186 0.00111117 1e-05
0.0111411 0.00111097 1e-05
0.0112635 0.00111077 1e-05
0.0113859 0.00111055 1e-05
0.0115093 0.00111031 1e-05
0.0116327 0.00111008 1e-05
0.0117561 0.00110984 1e-05
0.0118795 0.00110958 1e-05
0.0120028 0.00110933 1e-05
0.0121272 0.00110904 1e-05
0.0122515 0.00110876 1e-05
0.0123759 0.00110847 1e-05
0.0125002 0.00110818 1e-05
0.0126245 0.00110787 1e-05
0.0127498 0.00110754 1e-05
0.0128752 0.00110722 1e-05
0.0130005 0.00110688 1e-05
0.0131258 0.00110654 1e-05
0.0132511 0.00110619 1e-05
0.0133774 0.00110581 1e-05
0.0135036 0.00110544 1e-05
0.0136299 0.00110506 1e-05
0.0137562 0.00110467 1e-05
0.0138825 0.00110427 1e-05
0.0140098 0.00110385 1e-05
0.014137 0.00110343 1e-05
0.0142643 0.001103 1e-05
0.0143915 0.00110256 1e-05
0.0145188 0.00110211 1e-05
0.0146471 0.00110164 1e-05
0.0147753 0.00110117 1e-05
0.0149036 0.00110069 1e-05
0.0150318 0.00110021 1e-05
0.0151601 0.00109971 1e-05
0.0152893 0.00109919 1e-05
0.0154186 0.00109867 1e-05
0.0155478 0.00109814 1e-05
0.0156771 0.0010976 1e-05
0.0158063 0.00109706 1e-05
0.0159366 0.00109649 1e-05
0.0160668 0.00109592 1e-05
0.0161971 0.00109534 1e-05
0.0163274 0.00109476 1e-05
0.0164576 0.00109416 1e-05
0.0165889 0.00109355 1e-05
0.0167201 0.00109293 1e-05
0.0168514 0.0010923 1e-05
0.0169827 0.00109166 1e-05
0.0171139 0.00109101 1e-05
0.0172462 0.00109035 1e-05
0.0173785 0.00108968 1e-05
0.0175108 0.001089 1e-05
0.0176431 0.00108831 1e-05
0.0177754 0.00108761 1e-05
0.0179087 0.00108691 1e-05
0.018042 0.00108619 1e-05
0.0181753 0.00108545 1e-05
0.0183087 0.00108471 1e-05
0.018442 0.00108396 1e-05
0.0185763 0.00108321 1e-05
0.0187107 0.00108244 1e-05
0.018845 0.00108166 1e-05
0.0189794 0.00108086 1e-05
0.0191137 0.00108006 1e-05
0.0192491 0.00107926 1e-05
0.0193845 0.00107844 1e-05
0.0195199 0.0010776 1e-05
0.0196553 0.00107675 1e-05
0.0197907 0.00107591 1e-05
0.0199272 0.00107506 1e-05
0.0200636 0.00107419 1e-05
0.0202001 0.0010733 1e-05
0.0203365 0.0010724 1e-05
0.020473 0.0010715 1e-05
0.0206105 0.0010706 1e-05
0.020748 0.00106968 1e-05
0.0208855 0.00106874 1e-05
0.021023 0.00106779 1e-05
0.0211606 0.00106684 1e-05
0.0212991 0.0010659 1e-05
0.0214377 0.00106493 1e-05
0.0215763 0.00106393 1e-05
0.0217149 0.00106293 1e-05
0.0218535 0.00106194 1e-05
0.0219931 0.00106094 1e-05
0.0221328 0.00105992 1e-05
0.0222724 0.00105887 1e-05
0.0224121 0.00105782 1e-05
0.0225517 0.00105677 1e-05
0.0226925 0.00105573 1e-05
0.0228332 0.00105466 1e-05
0.022974 0.00105356 1e-05
0.0231147 0.00105245 1e-05
0.0232555 0.00105136 1e-05
0.0233973 0.00105026 1e-05
0.0235391 0.00104914 1e-05
0.023681 0.00104799 1e-05
0.0238228 0.00104683 1e-05
0.0239647 0.00104568 1e-05
0.0241076 0.00104454 1e-05
0.0242505 0.00104336 1e-05
0.0243935 0.00104216 1e-05
0.0245364 0.00104095 1e-05
0.0246794 0.00103975 1e-05
0.0248234 0.00103855 1e-05
0.0249675 0.00103733 1e-05
0.0251115 0.00103607 1e-05
0.0252556 0.00103481 1e-05
[...]
POINT_DATA 12040
 FIELD attributes 2
p 1 12040 float
-4.82481 -4.8215 -4.81819 -4.81488 -4.81157 -4.80827
-4.9778 -4.97777 -4.97775 -4.97773 -4.97771 -4.97769
-5.15156 -5.15144 -5.15131 -5.15119 -5.15107 -5.15096
-5.24451 -5.24445 -5.2444 -5.24435 -5.24429 -5.24424
-5.28923 -5.28912 -5.289 -5.28889 -5.28878 -5.28867
-5.29547 -5.29531 -5.29515 -5.29499 -5.29483 -5.29467
-5.26831 -5.26824 -5.26817 -5.2681 -5.26803 -5.26796
-5.1986 -5.19856 -5.19852 -5.19848 -5.19844 -5.1984
-5.0773 -5.07731 -5.07732 -5.07732 -5.07733 -5.07734
-2.86477 -2.8841 -2.90329 -2.92236 -2.94129 -2.96008
-4.82481 -4.82414 -4.82058 -4.81693 -4.81321 -4.80495 -4.81887 -4.83391 -4.84895 -4.86399 -4.88847 -4.91027 -4.94023 -4.9702 -5.00016 -5.03294 -5.04862 -5.07036 -5.09209 -5.11382 -5.13718 -5.15612 -5.17706 -5.19801 -5.21897 -5.23666 -5.23773 -5.2388 -5.23986 -5.24093 -5.24199 -5.2637 -5.2854 -5.3071 -5.32881 -5.35024 -5.36905 -5.38767 -5.40629 -5.42491 -5.44297 -5.45865 -5.47405 -5.48946 -5.50486 -5.51971 -5.53356 -5.54716 -5.56075 -5.57435 -5.5875 -5.60029 -5.61282 -5.62535 -5.63788 -5.64998 -5.66188 -5.67347 -5.68506 -5.69666 -5.70783 -5.71891 -5.72971 -5.74051 -5.75132 -5.76176 -5.77223 -5.78242 -5.79262 -5.80281 -5.81269 -5.82266 -5.83245 -5.84223 -5.85201 -5.86158 -5.87124 -5.88064 -5.89004 -5.89943 -5.90861 -5.91807 -5.92766 -5.93725 -5.94684 -5.95658 -5.96652 -5.97621 -5.9859 -5.99559 -6.00509 -6.01509 -6.02591 -6.03673 -6.04755 -6.05856 -6.06851 -6.0792 -6.08989 -6.10058 -6.11082 -6.12011 -6.12894 -6.13776 -6.14658 -6.15461 -6.16175 -6.16993 -6.17812 -6.1863 -6.19521 -6.20338 -6.21199 -6.22061 -6.22923 -6.23796 -6.24609 -6.25323 -6.26037 -6.26752 -6.27381 -6.28052 -6.28594 -6.29136 -6.29678 -6.30115 -6.30679 -6.31138 -6.31598 -6.32057 -6.32422 -6.3291 -6.33309 -6.33708 -6.34106 -6.34424 -6.34816 -6.35133 -6.3545 -6.35767 -6.36024 -6.36315 -6.3655 -6.36786 -6.37022 -6.37221 -6.37438 -6.3762 -6.37802 -6.37985 -6.38148 -6.38329 -6.38489 -6.38649 -6.38809 -6.3896 -6.39121 -6.39272 -6.39422 -6.39572 -6.39719 -6.3981 -6.39897 -6.39983 -6.4007 -6.40154 -6.40209 -6.40264 -6.40319 -6.40374 -6.40433 -6.40564 -6.40699 -6.40834 -6.4097 -6.41124 -6.41237 -6.41372 -6.41507 -6.41642 -6.41819 -6.41912 -6.42051 -6.4219 -6.42329 -6.42539 -6.42611 -6.4276 -6.42909 -6.43059 -6.43316 -6.43369 -6.43531 -6.43693 -6.43856 -6.4416 -6.44191 -6.44363 -6.44535 -6.44706 -6.45055 -6.45065 -6.45248 -6.4543 -6.45613 -6.46008 -6.46004 -6.46201 -6.46397 -6.46594 -6.47032 -6.4702 -6.47231 -6.47442 -6.47653 -6.48129 -6.48111 -6.48336 -6.48561 -6.48786 -6.49293 -6.49275 -6.49514 -6.49753 -6.50009 -6.50527 -6.5054 -6.50767 -6.51021 -6.51318 -6.51832 -6.51879 -6.52099 -6.52367 -6.52702 -6.5321 -6.53292 -6.53508 -6.53791 -6.54159 -6.54659 -6.54777 -6.54993 -6.55291 -6.55687 -6.5618 -6.56332 -6.56553 -6.56865 -6.57284 -6.5777 -6.57956 -6.58185 -6.58511 -6.5895 -6.59429 -6.59647 -6.59887 -6.60228 -6.60681 -6.61154 -6.61402 -6.61656 -6.6201 -6.62476 -6.62945 -6.63221 -6.63497 -6.63867 -6.64333 -6.64799 -6.65101 -6.65403 -6.65785 -6.6625 -6.66714 -6.67041 -6.67368 -6.67763 -6.68228 -6.68692 -6.69044 -6.69395 -6.69803 -6.70267 -6.70731 -6.71105 -6.7148 -6.71897 -6.72359 -6.72821 -6.73215 -6.73609 -6.74036 -6.74496 -6.74955 -6.75364 -6.75773 -6.76208 -6.76668 -6.77128 -6.77549 -6.7797 -6.78413 -6.78876 -6.79339 -6.79769 -6.80203 -6.80653 -6.81117 -6.81583 -6.82022 -6.82466 -6.82922 -6.83388 -6.83859 -6.84305 -6.84758 -6.8522 -6.85689 -6.86164 -6.86615 -6.87076 -6.87542 -6.88014 -6.88493 -6.88949 -6.89415 -6.89886 -6.90359 -6.90841 -6.913 -6.91771 -6.92244 -6.92719 -6.93203 -6.93664 -6.94139 -6.94614 -6.95089 -6.95574 -6.96038 -6.96514 -6.96989 -6.97465 -6.97948 -6.98414 -6.98889 -6.99364 -6.9984 -7.0032 -7.00786 -7.0126 -7.01733 -7.02207 -7.02683 -7.03148 -7.03619 -7.04089 -7.04559 -7.05031 -7.05494 -7.05959 -7.06424 -7.0689 -7.07356 -7.07611 -7.07868 -7.08124 -7.08381 -7.08632 -7.08836 -7.0904 -7.09244 -7.09448 -7.09653 -7.10104 -7.10556 -7.11008 -7.1146 -7.11914 -7.12357 -7.128 -7.13242 -7.13685 -7.1413 -7.14563 -7.14996 -7.15428 -7.1586 -7.16295 -7.16717 -7.17137 -7.17557 -7.17977 -7.18399 -7.18808 -7.19214 -7.19619 -7.20024 -7.20429 -7.20825 -7.21213 -7.21601 -7.21989 -7.22376 -7.22754 -7.23126 -7.23495 -7.23864 -7.2423 -7.2459 -7.24943 -7.25292 -7.25638 -7.25981 -7.2632 -7.26653 -7.26977 -7.27297 -7.27615 -7.2793 -7.28241 -7.28539 -7.2883 -7.2912 -7.29407 -7.29695 -7.29965 -7.30223 -7.30482 -7.30741 -7.30999 -7.31239 -7.31464 -7.3169 -7.31916 -7.32142 -7.3235 -7.32539 -7.32728 -7.32919 -7.33111 -7.33284 -7.33434 -7.33584 -7.33738 -7.33892 -7.34027 -7.34135 -7.34244 -7.34357 -7.34468 -7.3456 -7.34629 -7.34692 -7.34761 -7.34823 -7.3487 -7.34898 -7.34914 -7.34937 -7.34945 -7.34943 -7.3493 -7.34895 -7.34868 -7.34819 -7.34765 -7.34708 -7.34619 -7.34538 -7.34428 -7.34318 -7.34209 -7.3407 -7.33925 -7.33757 -7.33589 -7.33421 -7.33233 -7.33019 -7.32789 -7.3256 -7.3233 -7.32091 -7.31824 -7.3155 -7.31275 -7.31001 -7.30743 -7.30721 -7.30698 -7.30675 -7.30652 -7.30628 -7.30272 -7.29914 -7.29557 -7.292 -7.28831 -7.28418 -7.2799 -7.27562 -7.27134 -7.2668 -7.2621 -7.25708 -7.25206 -7.24704 -7.24161 -7.23631 -7.23052 -7.22473 -7.21886 -7.21256 -7.2065 -7.20006 -7.19347 -7.18664 -7.17951 -7.17262 -7.16555 -7.15813 -7.15028 -7.14229 -7.13456 -7.12683 -7.11851 -7.10963 -7.10076 -7.09215 -7.08355 -7.07435 -7.06455 -7.05476 -7.04524 -7.03573 -7.02562 -7.01488 -7.00415 -6.9937 -6.98322 -6.97212 -6.96049 -6.94878 -6.93736 -6.92568 -6.91359 -6.90121 -6.8885 -6.87609 -6.86317 -6.85006 -6.83692 -6.82319 -6.80969 -6.79554 -6.78139 -6.76725 -6.75271 -6.7379 -6.72268 -6.70747 -6.69227 -6.67695 -6.67042 -6.66376 -6.65711 -6.65046 -6.644 -6.6344 -6.62481 -6.61521 -6.60562 -6.59587 -6.57876 -6.5615 -6.54425 -6.52701 -6.50932 -6.49138 -6.473 -6.45464 -6.43621 -6.41716 -6.39819 -6.37887 -6.35937 -6.33949 -6.31928 -6.29917 -6.279 -6.25835 -6.23697 -6.2156 -6.19432 -6.17306 -6.15115 -6.12859 -6.10603 -6.08359 -6.06115 -6.038 -6.01427 -5.99052 -5.96688 -5.94293 -5.91852 -5.89394 -5.86899 -5.84416 -5.8186 -5.79299 -5.76739 -5.74139 -5.71501 -5.68817 -5.66135 -5.63453 -5.60769 -5.60595 -5.60417 -5.6024 -5.60062 -5.59886 -5.57266 -5.54647 -5.52029 -5.49411 -5.46766 -5.43869 -5.40951 -5.38035 -5.35118 -5.32144 -5.29138 -5.2611 -5.23072 -5.20002 -5.16906 -5.13778 -5.10651 -5.07486 -5.04268 -5.0105 -4.97801 -4.94552 -4.91256 -4.87917 -4.84578 -4.81208 -4.77823 -4.74395 -4.70952 -4.67494 -4.64004 -4.60463 -4.56916 -4.53369 -4.49801 -4.46725 -4.43618 -4.40512 -4.37407 -4.34465 -4.33874 -4.33283 -4.32692 -4.32101 -4.31504 -4.27734 -4.23961 -4.20188 -4.16417 -4.12598 -4.08739 -4.04851 -4.00964 -3.97056 -3.93104 -3.89131 -3.85154 -3.81155 -3.77092 -3.73028 -3.68943 -3.6486 -3.60728 -3.56556 -3.52382 -3.48188 -3.43975 -3.39721 -3.35458 -3.31178 -3.26877 -3.22516 -3.18156 -3.13798 -3.09428 -3.07558 -3.0567 -3.03783 -3.01895 -3.00055 -2.97475 -2.94896 -2.92317 -2.89738 -2.87133 -2.82592 -2.78038 -2.73485 -2.68927 -2.6431 -2.59682 -2.55045 -2.50397 -2.45698 -2.40988 -2.36265 -2.31544 -2.26782 -2.21983 -2.17183 -2.1237 -2.0754 -2.02672 -1.978 -1.92914 -1.8801 -1.83057 -1.78105 -1.73154 -1.68198 -1.673 -1.66394 -1.65489 -1.64583 -1.63687 -1.59563 -1.55439 -1.51316 -1.47194 -1.43035 -1.37945 -1.32843 -1.27742 -1.2262 -1.17464 -1.12302 -1.07141 -1.01959 -0.967383 -0.915149 -0.862844 -0.810534 -0.75778 -0.704964 -0.652088 -0.599138 -0.545817 -0.492448 -0.439089 -0.385665 -0.367899 -0.350022 -0.332147 -0.314272 -0.296709 -0.260592 -0.224479 -0.188371 -0.152268 -0.115901 -0.0614959 -0.00706426 0.0473573 0.101931 0.156763 0.211639 0.266503 0.321461 0.376656 0.431887 0.487168 0.54249 0.598057 0.653612 0.709202 0.764867 0.820772 0.876667 0.932553 0.988475 0.989274 0.990077 0.990879 0.991681 0.992483 1.04791 1.10332 1.15873 1.21413 1.26981 1.32631 1.38278 1.43922 1.49583 1.55253 1.60924 1.66593 1.72274 1.77953 1.83636 1.89321 1.95014 2.0071 2.06405 2.121 2.13957 2.15816 2.17676 2.19536 2.21367 2.25221 2.29074 2.32926 2.36779 2.40641 2.46363 2.52073 2.57782 2.63495 2.69216 2.74934 2.80651 2.86366 2.92071 2.97781 3.0349 3.09198 3.14903 3.20608 3.26309 3.28227 3.30143 3.3206 3.33976 3.35865 3.39651 3.43438 3.47224 3.5101 3.54796 3.60493 3.66175 3.71853 3.77525 3.832 3.88871 3.9454 4.00199 4.05836 4.11479 4.17117 4.22742 4.28363 4.33983 4.39604 4.40183 4.40761 4.41338 4.41915 4.4249 4.47513 4.52536 4.57558 4.62579 4.67588 4.73168 4.7874 4.84296 4.8983 4.95369 5.00901 5.0643 5.11935 5.17431 5.22916 5.26622 5.3031 5.33995 5.3768 5.41287 5.43076 5.44864 5.46653 5.48441 5.50222 5.55653 5.61069 5.66484 5.71885 5.77275 5.82654 5.88031 5.93381 5.98699 6.04022 6.09334 6.14619 6.19894 6.25168 6.30441 6.30919 6.31393 6.31867 6.32341 6.32814 6.3757 6.42326 6.47081 6.51832 6.56558 6.6174 6.66921 6.72069 6.77186 6.82307 6.87411 6.92501 6.97563 7.02625 7.07665 7.09661 7.11641 7.13619 7.15596 7.17564 7.20587 7.23611 7.26634 7.29652 7.32648 7.37603 7.42541 7.47467 7.52347 7.57225 7.62091 7.66949 7.71763 7.76572 7.81359 7.83702 7.86025 7.88342 7.90659 7.92974 7.95398 7.97822 8.00246 8.02664 8.05062 8.09755 8.14427 8.19092 8.23709 8.28319 8.32915 8.37505 8.42046 8.46579 8.51089 8.53364 8.55617 8.57863 8.60109 8.62369 8.6458 8.66791 8.69002 8.71206 8.73389 8.77797 8.82182 8.86561 8.9089 8.95209 8.99513 9.0381 9.08056 9.12295 9.16508 9.18655 9.20778 9.22895 9.25011 9.27158 9.29195 9.31232 9.33269 9.353 9.37308 9.41411 9.4549 9.49564 9.5359 9.57603 9.61597 9.65587 9.69524 9.73449 9.77352 9.7961 9.81841 9.84065 9.86288 9.88572 9.90179 9.91786 9.93393 9.94995 9.96579 10.0036 10.0412 10.0787 10.1159 10.1529 10.1896 10.2263 10.2626 10.2985 10.3344 10.363 10.3912 10.4194 10.4476 10.4773 10.4839 10.4905 10.4972 10.5038 10.5103 10.5447 10.579 10.6133 10.6474 10.6811 10.7146 10.748 10.781 10.8136 10.8462 10.8785 10.9105 10.9423 10.9741 11.0057 11.0158 11.0258 11.0358 11.0458 11.0561 11.0769 11.0977 11.1186 11.1394 11.1599 11.19 11.2199 11.2498 11.2793 11.3087 11.3378 11.3668 11.3955 11.4238 11.452 11.4799 11.5075 11.5351 11.5627 11.59 11.6003 11.6103 11.6203 11.6303 11.6409 11.6571 11.6734 11.6896 11.7058 11.7217 11.7473 11.7731 11.7989 11.8252 11.852 11.8785 11.9049 11.9254 11.9409 11.9564 11.9711 11.9859 12.0113 12.0446 12.0786 12.112 12.1305 12.1446 12.1586 12.1717 12.1719 12.1722 12.1726 12.1729 12.1733 12.1796 12.1857 12.1919 12.1989 12.2101 12.221 12.2318 12.2418 12.2511 12.2603 12.2685 12.276 12.2822 12.2883 12.2929 12.2947 12.2958 12.2968 12.2978 12.2989 12.3003 12.3017 12.3031 12.3045 12.3052 12.305 12.3038 12.3025 12.3003 12.2973 12.2926 12.2879 12.2814 12.2733 12.2651 12.255 12.2439 12.2315 12.2191 12.2051 12.1949 12.1832 12.1714 12.1596 12.146 12.1398 12.1336 12.1274 12.1212 12.1143 12.0908 12.0662 12.0415 12.0163 11.9889 11.9586 11.9276 11.8947 11.8589 11.823 11.7838 11.7445 11.7023 11.6568 11.6111 11.5619 11.5104 11.4571 11.4039 11.3475 11.2906 11.2306 11.1706 11.1106 11.0344 11.0327 11.0311 11.0294 11.0278 11.026 10.9499 10.8735 10.7971 10.7206 10.6406 10.5537 10.4627 10.3716 10.2788 10.1823 10.0803 9.97666 9.86879 9.75467 9.63988 9.51894 9.39793 9.27143 9.13964 9.00773 8.86915 8.73028 8.57995 8.42146 8.26138 8.09369 7.92498 7.75533 7.58524 7.4137 7.23425 7.02459 6.81469 6.60485 6.37782 6.14518 5.92904 5.71286 5.49664 5.28428 5.20248 5.10384 5.00525 4.90671 4.79576 4.58625 4.37653 4.16658 3.95642 3.71395 3.39569 3.13634 2.87622 2.61538 2.49299 2.37699 1.94191 1.51199 0.943191 0