# vtk DataFile Version 2.0
track0
ASCII
DATASET POLYDATA
POINTS 12040 float
-0.0205 0.001 1e-05
-0.02052 0.000999985 1e-05
-0.02054 0.000999974 1e-05
-0.02056 0.000999965 1e-05
-0.02058 0.000999959 1e-05
-0.0206 0.000999956 1e-05
-0.0205 0.00367778 1e-05
-0.02052 0.00367778 1e-05
-0.02054 0.00367777 1e-05
-0.02056 0.00367777 1e-05
-0.02058 0.00367777 1e-05
-0.0206 0.00367777 1e-05
-0.0205 0.00635556 1e-05
-0.02052 0.00635555 1e-05
-0.02054 0.00635555 1e-05
-0.02056 0.00635555 1e-05
-0.02058 0.00635555 1e-05
-0.0206 0.00635555 1e-05
-0.0205 0.00903333 1e-05
-0.02052 0.00903333 1e-05
-0.02054 0.00903333 1e-05
-0.02056 0.00903333 1e-05
-0.02058 0.00903333 1e-05
-0.0206 0.00903333 1e-05
-0.0205 0.0117111 1e-05
-0.02052 0.0117111 1e-05
-0.02054 0.0117111 1e-05
-0.02056 0.0117111 1e-05
-0.02058 0.0117111 1e-05
-0.0206 0.0117111 1e-05
-0.0205 0.0143889 1e-05
-0.02052 0.0143889 1e-05
-0.02054 0.0143889 1e-05
-0.02056 0.0143889 1e-05
-0.02058 0.0143889 1e-05
-0.0206 0.0143889 1e-05
-0.0205 0.0170667 1e-05
-0.02052 0.0170667 1e-05
-0.02054 0.0170667 1e-05
-0.02056 0.0170667 1e-05
-0.02058 0.0170667 1e-05
-0.0206 0.0170667 1e-05
-0.0205 0.0197444 1e-05
-0.02052 0.0197444 1e-05
-0.02054 0.0197444 1e-05
-0.02056 0.0197444 1e-05
-0.02058 0.0197444 1e-05
-0.0206 0.0197444 1e-05
-0.0205 0.0224222 1e-05
-0.02052 0.0224222 1e-05
-0.02054 0.0224222 1e-05
-0.02056 0.0224222 1e-05
-0.02058 0.0224222 1e-05
-0.0206 0.0224222 1e-05
-0.0205 0.0251 1e-05
-0.02052 0.0250998 1e-05
-0.02054 0.0250997 1e-05
-0.02056 0.0250995 1e-05
-0.02058 0.0250995 1e-05
-0.0206 0.0250994 1e-05
-0.0205 0.001 1e-05
-0.0202034 0.00100022 1e-05
-0.0199069 0.00100067 1e-05
-0.0196103 0.00100133 1e-05
-0.0193137 0.00100219 1e-05
-0.0190172 0.00100326 1e-05
-0.0187132 0.00100467 1e-05
-0.0184093 0.00100589 1e-05
-0.0181054 0.00100711 1e-05
-0.0178015 0.00100832 1e-05
-0.0174976 0.00100954 1e-05
-0.0172058 0.00101083 1e-05
-0.016914 0.00101193 1e-05
-0.0166222 0.00101303 1e-05
-0.0163305 0.00101413 1e-05
-0.0160387 0.00101523 1e-05
-0.0157586 0.00101636 1e-05
-0.0154784 0.00101744 1e-05
-0.0151983 0.00101856 1e-05
-0.0149182 0.00101971 1e-05
-0.0146381 0.0010209 1e-05
-0.0143744 0.00102209 1e-05
-0.0141108 0.00102327 1e-05
-0.0138471 0.00102449 1e-05
-0.0135834 0.00102574 1e-05
-0.0133608 0.00102682 1e-05
-0.0133473 0.00102688 1e-05
-0.0133338 0.00102695 1e-05
-0.0133204 0.00102702 1e-05
-0.0133069 0.00102708 1e-05
-0.0132934 0.00102715 1e-05
-0.0130353 0.00102844 1e-05
-0.0127771 0.00102974 1e-05
-0.0125189 0.00103106 1e-05
-0.0122607 0.00103239 1e-05
-0.0120025 0.00103374 1e-05
-0.0117547 0.00103505 1e-05
-0.0115068 0.00103637 1e-05
-0.0112589 0.00103769 1e-05
-0.0110111 0.00103901 1e-05
-0.0107632 0.00104034 1e-05
-0.0105252 0.00104161 1e-05
-0.0102873 0.00104289 1e-05
-0.0100493 0.00104417 1e-05
-0.00981133 0.00104545 1e-05
-0.00957337 0.00104672 1e-05
-0.00934491 0.00104794 1e-05
-0.00911645 0.00104917 1e-05
-0.00888799 0.00105038 1e-05
-0.00865954 0.0010516 1e-05
-0.00843108 0.00105281 1e-05
-0.00821175 0.00105397 1e-05
-0.00799242 0.00105512 1e-05
-0.00777309 0.00105628 1e-05
-0.00755376 0.00105742 1e-05
-0.00733443 0.00105857 1e-05
-0.00712387 0.00105966 1e-05
-0.0069133 0.00106075 1e-05
-0.00670273 0.00106183 1e-05
-0.00649216 0.00106291 1e-05
-0.0062816 0.00106399 1e-05
-0.00607944 0.00106501 1e-05
-0.00587729 0.00106604 1e-05
-0.00567514 0.00106706 1e-05
-0.00547298 0.00106807 1e-05
-0.00527083 0.00106908 1e-05
-0.00507675 0.00107005 1e-05
-0.00488267 0.00107101 1e-05
-0.0046886 0.00107197 1e-05
-0.00449452 0.00107292 1e-05
-0.00430044 0.00107387 1e-05
-0.00411412 0.00107477 1e-05
-0.0039278 0.00107568 1e-05
-0.00374147 0.00107658 1e-05
-0.00355515 0.00107748 1e-05
-0.00336883 0.00107837 1e-05
-0.00318995 0.00107922 1e-05
-0.00301107 0.00108007 1e-05
-0.00283219 0.00108092 1e-05
-0.00265331 0.00108177 1e-05
-0.00247443 0.00108261 1e-05
-0.0023027 0.00108341 1e-05
-0.00213097 0.00108422 1e-05
-0.00195924 0.00108502 1e-05
-0.0017875 0.00108582 1e-05
-0.00161577 0.00108662 1e-05
-0.0014509 0.00108738 1e-05
-0.00128603 0.00108814 1e-05
-0.00112116 0.0010889 1e-05
-0.000956289 0.00108966 1e-05
-0.000791418 0.00109042 1e-05
-0.000633135 0.00109114 1e-05
-0.000474851 0.00109187 1e-05
-0.000316567 0.0010926 1e-05
-0.000158284 0.00109332 1e-05
0 0.00109404 1e-05
0.000105677 0.00109452 1e-05
0.000211355 0.00109499 1e-05
0.000317032 0.00109547 1e-05
0.00042271 0.00109594 1e-05
0.000528387 0.0010964 1e-05
0.000634886 0.00109687 1e-05
0.000741385 0.00109733 1e-05
0.000847885 0.00109779 1e-05
0.000954384 0.00109825 1e-05
0.00106088 0.0010987 1e-05
0.00116821 0.00109915 1e-05
0.00127554 0.0010996 1e-05
0.00138286 0.00110004 1e-05
0.00149019 0.00110048 1e-05
0.00159752 0.00110091 1e-05
0.00170568 0.00110133 1e-05
0.00181384 0.00110176 1e-05
0.001922 0.00110217 1e-05
0.00203016 0.00110257 1e-05
0.00213833 0.00110297 1e-05
0.00224733 0.00110336 1e-05
0.00235633 0.00110374 1e-05
0.00246533 0.00110412 1e-05
0.00257434 0.00110448 1e-05
0.00268334 0.00110484 1e-05
0.00279319 0.00110519 1e-05
0.00290304 0.00110553 1e-05
0.00301289 0.00110587 1e-05
0.00312274 0.0011062 1e-05
0.00323259 0.00110652 1e-05
0.00334329 0.00110683 1e-05
0.003454 0.00110714 1e-05
0.0035647 0.00110744 1e-05
0.0036754 0.00110774 1e-05
0.00378611 0.00110802 1e-05
0.00389767 0.0011083 1e-05
0.00400924 0.00110857 1e-05
0.0041208 0.00110884 1e-05
0.00423237 0.0011091 1e-05
0.00434393 0.00110935 1e-05
0.00445636 0.00110959 1e-05
0.00456879 0.00110982 1e-05
0.00468123 0.00111005 1e-05
0.00479366 0.00111027 1e-05
0.00490609 0.00111049 1e-05
0.0050194 0.00111069 1e-05
0.0051327 0.00111089 1e-05
0.00524601 0.00111108 1e-05
0.00535932 0.00111127 1e-05
0.00547262 0.00111144 1e-05
0.00558681 0.00111161 1e-05
0.005701 0.00111177 1e-05
0.00581518 0.00111193 1e-05
0.00592937 0.00111207 1e-05
0.00604356 0.00111222 1e-05
0.00615863 0.00111235 1e-05
0.00627371 0.00111247 1e-05
0.00638878 0.00111259 1e-05
0.00650386 0.0011127 1e-05
0.00661893 0.00111281 1e-05
0.0067349 0.0011129 1e-05
0.00685087 0.00111299 1e-05
0.00696684 0.00111307 1e-05
0.00708281 0.00111315 1e-05
0.00719878 0.00111322 1e-05
0.00727059 0.00111325 1e-05
0.0073424 0.00111329 1e-05
0.00741421 0.00111332 1e-05
0.00748602 0.00111334 1e-05
0.00755544 0.00111337 1e-05
0.00760098 0.00111338 1e-05
0.00764652 0.0011134 1e-05
0.00769206 0.00111341 1e-05
0.0077376 0.00111342 1e-05
0.00778313 0.00111343 1e-05
0.00790091 0.00111345 1e-05
0.00801869 0.00111346 1e-05
0.00813647 0.00111347 1e-05
0.00825425 0.00111347 1e-05
0.00837203 0.00111346 1e-05
0.00849073 0.00111344 1e-05
0.00860942 0.00111341 1e-05
0.00872812 0.00111338 1e-05
0.00884682 0.00111334 1e-05
0.00896551 0.00111329 1e-05
0.00908513 0.00111323 1e-05
0.00920475 0.00111316 1e-05
0.00932437 0.00111309 1e-05
0.00944398 0.00111301 1e-05
0.0095636 0.00111292 1e-05
0.00968415 0.00111282 1e-05
0.0098047 0.00111271 1e-05
0.00992525 0.0011126 1e-05
0.0100458 0.00111248 1e-05
0.0101663 0.00111235 1e-05
0.0102878 0.0011122 1e-05
0.0104093 0.00111205 1e-05
0.0105308 0.00111189 1e-05
0.0106523 0.00111173 1e-05
0.0107738 0.00111156 1e-05
0.0108962 0.00111136 1e-05
0.0110186 0.00111117 1e-05
0.0111411 0.00111097 1e-05
0.0112635 0.00111077 1e-05
0.0113859 0.00111055 1e-05
0.0115093 0.00111031 1e-05
0.0116327 0.00111008 1e-05
0.0117561 0.00110984 1e-05
0.0118795 0.00110958 1e-05
0.0120028 0.00110933 1e-05
0.0121272 0.00110904 1e-05
0.0122515 0.00110876 1e-05
0.0123759 0.00110847 1e-05
0.0125002 0.00110818 1e-05
0.0126245 0.00110787 1e-05
0.0127498 0.00110754 1e-05
0.0128752 0.00110722 1e-05
0.0130005 0.00110688 1e-05
0.0131258 0.00110654 1e-05
0.0132511 0.00110619 1e-05
0.0133774 0.00110581 1e-05
0.0135036 0.00110544 1e-05
0.0136299 0.00110506 1e-05
0.0137562 0.00110467 1e-05
0.0138825 0.00110427 1e-05
0.0140098 0.00110385 1e-05
0.014137 0.00110343 1e-05
0.0142643 0.001103 1e-05
0.0143915 0.00110256 1e-05
0.0145188 0.00110211 1e-05
0.0146471 0.00110164 1e-05
0.0147753 0.00110117 1e-05
0.0149036 0.00110069 1e-05
0.0150318 0.00110021 1e-05
0.0151601 0.00109971 1e-05
0.0152893 0.00109919 1e-05
0.0154186 0.00109867 1e-05
0.0155478 0.00109814 1e-05
0.0156771 0.0010976 1e-05
0.0158063 0.00109706 1e-05
0.0159366 0.00109649 1e-05
0.0160668 0.00109592 1e-05
0.0161971 0.00109534 1e-05
0.0163274 0.00109476 1e-05
0.0164576 0.00109416 1e-05
0.0165889 0.00109355 1e-05
0.0167201 0.00109293 1e-05
0.0168514 0.0010923 1e-05
0.0169827 0.00109166 1e-05
0.0171139 0.00109101 1e-05
0.0172462 0.00109035 1e-05
0.0173785 0.00108968 1e-05
0.0175108 0.001089 1e-05
0.0176431 0.00108831 1e-05
0.0177754 0.00108761 1e-05
0.0179087 0.00108691 1e-05
0.018042 0.00108619 1e-05
0.0181753 0.00108545 1e-05
0.0183087 0.00108471 1e-05
0.018442 0.00108396 1e-05
0.0185763 0.00108321 1e-05
0.0187107 0.00108244 1e-05
0.018845 0.00108166 1e-05
0.0189794 0.00108086 1e-05
0.0191137 0.00108006 1e-05
0.0192491 0.00107926 1e-05
0.0193845 0.00107844 1e-05
0.0195199 0.0010776 1e-05
0.0196553 0.00107675 1e-05
0.0197907 0.00107591 1e-05
0.0199272 0.00107506 1e-05
0.0200636 0.00107419 1e-05
0.0202001 0.0010733 1e-05
0.0203365 0.0010724 1e-05
0.020473 0.0010715 1e-05
0.0206105 0.0010706 1e-05
0.020748 0.00106968 1e-05
0.0208855 0.00106874 1e-05
0.021023 0.00106779 1e-05
0.0211606 0.00106684 1e-05
0.0212991 0.0010659 1e-05
0.0214377 0.00106493 1e-05
0.0215763 0.00106393 1e-05
0.0217149 0.00106293 1e-05
0.0218535 0.00106194 1e-05
0.0219931 0.00106094 1e-05
0.0221328 0.00105992 1e-05
0.0222724 0.00105887 1e-05
0.0224121 0.00105782 1e-05
0.0225517 0.00105677 1e-05
0.0226925 0.00105573 1e-05
0.0228332 0.00105466 1e-05
0.022974 0.00105356 1e-05
0.0231147 0.00105245 1e-05
0.0232555 0.00105136 1e-05
0.0233973 0.00105026 1e-05
0.0235391 0.00104914 1e-05
0.023681 0.00104799 1e-05
0.0238228 0.00104683 1e-05
0.0239647 0.00104568 1e-05
0.0241076 0.00104454 1e-05
0.0242505 0.00104336 1e-05
0.0243935 0.00104216 1e-05
0.0245364 0.00104095 1e-05
0.0246794 0.00103975 1e-05
0.0248234 0.00103855 1e-05
0.0249675 0.00103733 1e-05
0.0251115 0.00103607 1e-05
0.0252556 0.00103481 1e-05
[...]
POINT_DATA 12040
 FIELD attributes 1
U 3 12040 float
10.0004 	0.00734814 	0 10.0004 	0.00587851 	0 10.0003 	0.00440889 	0 10.0002 	0.00293926 	0 10.0001 	0.00146963 	0 10 	0 	0
10.0001 	0.000878085 	0 10 	0.000702468 	0 10 	0.000526851 	0 10 	0.000351234 	0 10 	0.000175617 	0 10 	0 	0
10.0001 	0.000465977 	0 10.0001 	0.00037259 	0 10.0001 	0.000279204 	0 10 	0.000185818 	0 10 	9.24315e-05 	0 10 	0 	0
10 	0.00026597 	0 10 	0.000212776 	0 10 	0.000159582 	0 10 	0.000106388 	0 10 	5.3194e-05 	0 10 	0 	0
10 	8.03395e-05 	0 10 	6.42716e-05 	0 10 	4.82037e-05 	0 10 	3.21358e-05 	0 10 	1.60679e-05 	0 10 	0 	0
10 	-2.62798e-05 	0 10 	-2.10238e-05 	0 10 	-1.57679e-05 	0 10 	-1.05119e-05 	0 10 	-5.25596e-06 	0 10 	0 	0
10 	-0.000216144 	0 10 	-0.000172915 	0 10 	-0.000129686 	0 10 	-8.64575e-05 	0 10 	-4.32288e-05 	0 10 	0 	0
10 	-0.000377675 	0 10 	-0.00030214 	0 10 	-0.000226605 	0 10 	-0.00015107 	0 10 	-7.55351e-05 	0 10 	0 	0
9.99999 	-0.000426494 	0 9.99999 	-0.000341195 	0 9.99999 	-0.000255896 	0 10 	-0.000170597 	0 10 	-8.52987e-05 	0 10 	0 	0
9.17387 	0.0871272 	0 9.1308 	0.0697018 	0 9.08741 	0.0522761 	0 9.04368 	0.0348501 	0 8.99963 	0.017424 	0 8.95524 	0 	0
10.0004 	0.00734814 	0 10.0024 	0.0152061 	0 10.0045 	0.0222277 	0 10.0065 	0.0292049 	0 10.0086 	0.0361378 	0 10.0136 	0.0463296 	0 10.0164 	0.0402101 	0 10.0208 	0.0401605 	0 10.0253 	0.040111 	0 10.0297 	0.0400617 	0 10.0356 	0.0445202 	0 10.0385 	0.0378817 	0 10.0425 	0.0378381 	0 10.0464 	0.0377946 	0 10.0504 	0.037751 	0 10.0545 	0.0408528 	0 10.0567 	0.0387744 	0 10.0592 	0.0400835 	0 10.0616 	0.0413943 	0 10.064 	0.0427067 	0 10.0662 	0.0451652 	0 10.0677 	0.0452761 	0 10.0691 	0.0464787 	0 10.0704 	0.0476824 	0 10.0717 	0.0488872 	0 10.0729 	0.0499057 	0 10.0729 	0.0499677 	0 10.073 	0.0500297 	0 10.0731 	0.0500917 	0 10.0731 	0.0501538 	0 10.0732 	0.0502064 	0 10.0737 	0.0508326 	0 10.0743 	0.0514529 	0 10.0748 	0.0520737 	0 10.0753 	0.052695 	0 10.0758 	0.0531523 	0 10.0757 	0.0534472 	0 10.0754 	0.0536368 	0 10.075 	0.0538265 	0 10.0747 	0.0540163 	0 10.0741 	0.0539678 	0 10.0737 	0.0541117 	0 10.0726 	0.0540874 	0 10.0715 	0.054063 	0 10.0705 	0.0540387 	0 10.0689 	0.0537452 	0 10.0685 	0.0538241 	0 10.0669 	0.0536893 	0 10.0653 	0.0535545 	0 10.0637 	0.0534197 	0 10.0611 	0.0529985 	0 10.0611 	0.0530508 	0 10.0591 	0.0528546 	0 10.0571 	0.0526582 	0 10.0551 	0.0524619 	0 10.0515 	0.0519666 	0 10.0522 	0.0520171 	0 10.0499 	0.0517939 	0 10.0476 	0.0515706 	0 10.0453 	0.0513473 	0 10.0406 	0.0508168 	0 10.0421 	0.0508861 	0 10.0396 	0.050657 	0 10.0371 	0.0504279 	0 10.0346 	0.0501987 	0 10.0288 	0.0496488 	0 10.0313 	0.0497429 	0 10.0287 	0.0495239 	0 10.026 	0.0493049 	0 10.0234 	0.0490858 	0 10.0165 	0.0485387 	0 10.0201 	0.0486668 	0 10.0174 	0.0484587 	0 10.0147 	0.0482506 	0 10.012 	0.0480425 	0 10.0039 	0.047488 	0 10.0088 	0.0476487 	0 10.0061 	0.0474896 	0 10.0034 	0.0473305 	0 10.0006 	0.0471713 	0 9.99142 	0.0466752 	0 9.9976 	0.0468963 	0 9.99493 	0.0467357 	0 9.99225 	0.046575 	0 9.98958 	0.0464143 	0 9.97916 	0.0458566 	0 9.98671 	0.0460642 	0 9.9841 	0.0460286 	0 9.9815 	0.045993 	0 9.97889 	0.0459574 	0 9.96729 	0.0455961 	0 9.9763 	0.0458816 	9.04342e-22 9.9743 	0.0457374 	5.86375e-21 9.9723 	0.0455932 	1.08233e-20 9.9703 	0.045449 	1.5783e-20 9.95824 	0.044855 	1.34039e-20 9.96848 	0.0449629 	9.21573e-20 9.96668 	0.0446464 	8.55369e-20 9.96489 	0.0443298 	7.89129e-20 9.96309 	0.0440132 	7.22853e-20 9.95083 	0.0433262 	-1.46501e-20 9.96091 	0.0432803 	-3.97231e-20 9.95915 	0.0429771 	-4.41946e-20 9.9574 	0.042674 	-4.86646e-20 9.95564 	0.0423708 	-5.3133e-20 9.94357 	0.0417922 	-2.09356e-20 9.95319 	0.0415875 	-1.84209e-20 9.95129 	0.0410228 	-1.28236e-20 9.94938 	0.0404581 	-7.22664e-21 9.94747 	0.0398933 	-1.63015e-21 9.93561 	0.0391051 	6.87929e-21 9.94483 	0.0387913 	-5.60087e-21 9.94272 	0.0379807 	-2.38017e-20 9.94061 	0.03717 	-4.20045e-20 9.93849 	0.0363591 	-6.02092e-20 9.92673 	0.035281 	-8.58667e-20 9.93537 	0.035033 	-1.21157e-19 9.93291 	0.0342125 	-1.09059e-19 9.93045 	0.0333917 	-9.69541e-20 9.92798 	0.0325708 	-8.48416e-20 9.91621 	0.0313623 	-2.92598e-20 9.92412 	0.0312381 	3.34362e-20 9.92127 	0.030497 	4.66194e-20 9.91841 	0.0297557 	5.97934e-20 9.91554 	0.0290142 	7.29583e-20 9.90384 	0.0277831 	3.59956e-20 9.91093 	0.0277013 	-4.50844e-20 9.90769 	0.0269979 	-5.10148e-20 9.90445 	0.0262942 	-5.69313e-20 9.9012 	0.0255902 	-6.28338e-20 9.88967 	0.0243708 	-3.29017e-22 9.89581 	0.0242511 	5.85793e-20 9.89216 	0.0235546 	4.93796e-20 9.88851 	0.022858 	4.01659e-20 9.88486 	0.022161 	3.09382e-20 9.87356 	0.0209895 	-2.808e-20 9.87857 	0.0208046 	-8.13446e-20 9.87447 	0.0201152 	-1.03031e-19 9.87036 	0.0194255 	-1.24713e-19 9.86625 	0.0187356 	-1.46389e-19 9.85529 	0.0176444 	-1.33771e-19 9.85894 	0.0173903 	-1.52277e-19 9.85436 	0.0167126 	-1.40122e-19 9.84978 	0.0160347 	-1.27963e-19 9.84519 	0.0153564 	-1.15799e-19 9.83473 	0.0143621 	-8.18229e-20 9.83677 	0.0140453 	-6.86861e-20 9.83171 	0.0133841 	-5.06165e-20 9.82665 	0.0127227 	-3.25487e-20 9.82159 	0.0120609 	-1.44825e-20 9.81186 	0.0111662 	1.96827e-21 9.81197 	0.0107814 	0 9.80646 	0.0101323 	0 9.80093 	0.00948285 	0 9.7954 	0.00883313 	0 9.7867 	0.00803342 	0 9.78454 	0.00756691 	-1.62998e-20 9.77856 	0.00692426 	-3.48265e-20 9.77258 	0.0062813 	-5.33549e-20 9.76659 	0.00563804 	-7.18849e-20 9.75927 	0.00493391 	-9.09717e-20 9.75691 	0.0046158 	-9.4333e-20 9.75296 	0.00422483 	-9.47796e-20 9.74901 	0.00383374 	-9.52243e-20 9.74506 	0.00344253 	-9.5667e-20 9.74123 	0.00306421 	-9.60932e-20 9.73869 	0.0028146 	-9.68025e-20 9.73615 	0.00256494 	-9.7512e-20 9.73361 	0.00231523 	-9.82217e-20 9.73107 	0.00206546 	-9.89316e-20 9.72605 	0.00170451 	-9.89228e-20 9.72139 	0.00117384 	-7.37865e-20 9.71444 	0.000541141 	-4.53475e-20 9.70749 	-9.19437e-05 	-1.69177e-20 9.70052 	-0.000725415 	1.15028e-20 9.6847 	-0.0017475 	4.87655e-20 9.68547 	-0.00202249 	4.9627e-20 9.67809 	-0.00264932 	5.07447e-20 9.6707 	-0.00327656 	5.18604e-20 9.66331 	-0.00390422 	5.29739e-20 9.64082 	-0.00517045 	5.61784e-20 9.64689 	-0.00521994 	4.42613e-20 9.6391 	-0.00584082 	3.23415e-20 9.6313 	-0.00646215 	2.04206e-20 9.6235 	-0.00708393 	8.49856e-21 9.59468 	-0.00855029 	-1.06157e-21 9.60575 	-0.00841694 	-8.00244e-21 9.59757 	-0.00903216 	-1.93837e-20 9.58938 	-0.00964787 	-3.07639e-20 9.58118 	-0.0102641 	-4.21429e-20 9.54651 	-0.0118789 	-5.35372e-20 9.56217 	-0.011613 	-5.33535e-20 9.55364 	-0.0122247 	-6.05702e-20 9.54509 	-0.012837 	-6.77838e-20 9.53653 	-0.0134498 	-7.49943e-20 9.49661 	-0.0151588 	-9.35256e-20 9.51637 	-0.014811 	-1.47984e-19 9.5075 	-0.0154195 	-1.38699e-19 9.49861 	-0.0160286 	-1.29426e-19 9.48971 	-0.0166383 	-1.20165e-19 9.44523 	-0.0183817 	-4.07765e-20 9.46851 	-0.0180033 	-2.60343e-20 9.45932 	-0.0186082 	-1.82467e-20 9.45013 	-0.0192137 	-1.04584e-20 9.44091 	-0.0198199 	-2.66931e-21 9.39258 	-0.0215402 	0 9.4188 	-0.0211795 	0 9.40933 	-0.0217819 	0 9.39985 	-0.0223848 	0 9.39035 	-0.0229884 	0 9.33893 	-0.0246354 	0 9.36748 	-0.0243391 	1.55953e-21 9.35775 	-0.0249409 	8.8102e-21 9.348 	-0.0255433 	1.60601e-20 9.33825 	-0.0261463 	2.33093e-20 9.28448 	-0.0276723 	4.09693e-20 9.31478 	-0.0274899 	1.5793e-19 9.30482 	-0.0280915 	1.60799e-19 9.29484 	-0.0286938 	1.63682e-19 9.28485 	-0.0292967 	1.66579e-19 9.22945 	-0.0306495 	4.11564e-20 9.26095 	-0.0306239 	2.1975e-20 9.25078 	-0.031224 	1.54935e-20 9.24059 	-0.0318248 	9.01117e-21 9.22771 	-0.0324571 	3.76108e-21 9.17402 	-0.0335597 	1.73105e-20 9.20211 	-0.0337686 	1.03078e-19 9.19587 	-0.0343248 	1.13326e-19 9.18549 	-0.0349233 	1.14523e-19 9.16844 	-0.0355623 	9.94788e-20 9.11836 	-0.0363992 	3.94286e-21 9.14309 	-0.0368258 	-9.7594e-20 9.14031 	-0.0373841 	-1.27726e-19 9.12978 	-0.0379799 	-1.37786e-19 9.10926 	-0.0385749 	-1.26789e-19 9.06265 	-0.0391668 	-6.06846e-20 9.08421 	-0.039791 	-1.75644e-19 9.08433 	-0.0403941 	-2.15552e-19 9.07366 	-0.040987 	-2.17772e-19 9.05034 	-0.0414936 	-1.70928e-19 9.00702 	-0.041863 	-4.64119e-20 9.02564 	-0.0426641 	-2.45437e-20 9.02813 	-0.0433494 	-1.0741e-20 9.01734 	-0.0439392 	-3.58096e-21 8.99184 	-0.0443192 	0 8.95162 	-0.044489 	0 8.9675 	-0.0454464 	0 8.97191 	-0.0462451 	0 8.96103 	-0.046832 	0 8.93389 	-0.047054 	2.00441e-21 8.89656 	-0.0470473 	5.26565e-21 8.90994 	-0.048141 	2.15619e-21 8.91585 	-0.0490789 	0 8.90489 	-0.0496627 	0 8.87661 	-0.0497017 	2.3881e-21 8.84196 	-0.0495406 	5.65344e-21 8.85305 	-0.0507513 	2.54348e-21 8.86009 	-0.0518481 	1.18358e-21 8.84908 	-0.052429 	7.68614e-21 8.82008 	-0.0522664 	2.41273e-20 8.78792 	-0.0519725 	4.23219e-20 8.79693 	-0.0532823 	1.65916e-19 8.8048 	-0.0545528 	2.82874e-19 8.79375 	-0.0551309 	2.86277e-19 8.76441 	-0.0547534 	1.66418e-19 8.73451 	-0.0543468 	4.28256e-20 8.74165 	-0.0557384 	2.48926e-20 8.74874 	-0.0571315 	6.96075e-21 8.73745 	-0.0576673 	2.92456e-22 8.70964 	-0.0571676 	3.43542e-21 8.68183 	-0.0566676 	6.57824e-21 8.68728 	-0.0581257 	3.5946e-21 8.69268 	-0.0595853 	6.11756e-22 8.68176 	-0.0600909 	2.06402e-21 8.65585 	-0.0595156 	-1.80536e-21 8.62995 	-0.0589399 	-5.6738e-21 8.63388 	-0.0604502 	-4.84543e-20 8.63776 	-0.0619619 	-9.12385e-20 8.62725 	-0.0624375 	-9.25718e-20 8.60307 	-0.0618019 	-5.34292e-20 8.57891 	-0.0611658 	-1.42849e-20 8.5815 	-0.0627167 	8.35207e-20 8.58403 	-0.0642692 	1.81321e-19 8.57396 	-0.0647163 	1.89743e-19 8.55137 	-0.0640356 	1.08284e-19 8.52879 	-0.0633544 	2.68247e-20 8.53018 	-0.0649423 	1.56036e-20 8.53151 	-0.0665318 	4.37907e-21 8.52192 	-0.0669523 	4.89772e-22 8.50076 	-0.0662331 	5.04224e-21 8.47961 	-0.0655133 	9.59645e-21 8.47995 	-0.0671254 	4.14101e-21 8.48024 	-0.068739 	-1.31942e-21 8.47114 	-0.0691329 	-2.05733e-20 8.45127 	-0.0683879 	-6.99567e-20 8.43141 	-0.0676423 	-1.19342e-19 8.43083 	-0.0692625 	-2.48605e-19 8.4302 	-0.0708843 	-3.77863e-19 8.42161 	-0.0712532 	-3.62928e-19 8.4029 	-0.0705012 	-2.14762e-19 8.38421 	-0.0697486 	-6.65989e-20 8.38282 	-0.0713678 	5.57582e-20 8.38136 	-0.0729853 	1.77825e-19 8.373 	-0.0733006 	1.75459e-19 8.35566 	-0.0725903 	8.93321e-20 8.33802 	-0.0718445 	3.45967e-22 8.33591 	-0.0734572 	-8.79775e-20 8.33292 	-0.074891 	-1.65267e-19 8.32471 	-0.0752126 	-1.74432e-19 8.30953 	-0.0746693 	-1.13005e-19 8.29285 	-0.0739388 	-3.63284e-20 8.29011 	-0.075541 	-2.52339e-20 8.28587 	-0.0767901 	-1.42365e-20 8.2778 	-0.0771194 	-3.48543e-21 8.2645 	-0.0767475 	1.37372e-20 8.24869 	-0.0760389 	3.40663e-20 8.24539 	-0.0776286 	1.25334e-20 8.24014 	-0.0786958 	-2.39442e-21 8.23222 	-0.0790345 	-8.12227e-21 8.22054 	-0.0788353 	-3.06018e-21 8.20553 	-0.0781534 	1.16774e-20 8.20174 	-0.0797298 	-4.64516e-21 8.1957 	-0.0806198 	-1.53687e-20 8.1879 	-0.0809696 	-2.16864e-20 8.17764 	-0.0809422 	-3.36808e-20 8.16335 	-0.0802908 	-5.5064e-20 8.15912 	-0.0818537 	5.21188e-20 8.15247 	-0.0825724 	8.56441e-20 8.14479 	-0.0829346 	8.80539e-20 8.13577 	-0.0830772 	6.93412e-20 8.12213 	-0.082459 	-2.24284e-20 8.11751 	-0.0840086 	6.80776e-20 8.11041 	-0.0845628 	8.45526e-20 8.10284 	-0.0849388 	8.77523e-20 8.09489 	-0.0852484 	8.54795e-20 8.08185 	-0.0846659 	1.01662e-20 8.07689 	-0.0862029 	-6.38532e-22 8.06946 	-0.0866 	-4.71682e-22 8.062 	-0.0869911 	-2.45675e-22 8.05453 	-0.0873826 	-1.96904e-23 8.04249 	-0.0869193 	1.79531e-20 8.03692 	-0.0882848 	0 8.02958 	-0.0886922 	0 8.02223 	-0.0890999 	0 8.01485 	-0.0895079 	0 8.00401 	-0.0892269 	1.49475e-20 7.99797 	-0.0904227 	0 7.99072 	-0.0908479 	0 7.98346 	-0.0912734 	0 7.97617 	-0.0916991 	0 7.96638 	-0.0915966 	0 7.95999 	-0.0926306 	0 7.95282 	-0.0930749 	0 7.94564 	-0.0935195 	0 7.93844 	-0.0939643 	0 7.92956 	-0.0940361 	-8.26552e-21 7.92293 	-0.0949163 	0 7.91584 	-0.0953809 	0 7.90873 	-0.0958458 	0 7.90161 	-0.0963109 	0 7.89352 	-0.096553 	-1.01489e-20 7.88673 	-0.0972871 	0 7.87971 	-0.0977731 	0 7.87267 	-0.0982593 	0 7.86561 	-0.0987458 	0 7.85822 	-0.0991539 	-3.63523e-21 7.8544 	-0.0995252 	-4.8056e-21 7.85051 	-0.0998093 	-1.05184e-20 7.84662 	-0.100094 	-1.62315e-20 7.84272 	-0.100378 	-2.1945e-20 7.83891 	-0.100656 	-2.75287e-20 7.83572 	-0.100882 	-3.17659e-20 7.83252 	-0.101109 	-3.60029e-20 7.82932 	-0.101336 	-4.02396e-20 7.82612 	-0.101563 	-4.44761e-20 7.82327 	-0.10172 	-4.87156e-20 7.81605 	-0.102316 	-4.73381e-20 7.80894 	-0.10285 	-4.67164e-20 7.80182 	-0.103384 	-4.60919e-20 7.79467 	-0.103919 	-4.54648e-20 7.78865 	-0.104231 	-4.73364e-20 7.78117 	-0.10499 	-3.70252e-20 7.7741 	-0.105549 	-2.67015e-20 7.76702 	-0.106108 	-1.63764e-20 7.75991 	-0.106667 	-6.04986e-21 7.75471 	-0.106858 	0 7.74696 	-0.107776 	-2.64238e-21 7.73993 	-0.108361 	-7.38905e-21 7.73288 	-0.108947 	-1.2135e-20 7.72581 	-0.109532 	-1.68802e-20 7.7214 	-0.109608 	-2.15912e-20 7.71338 	-0.110682 	-5.03983e-20 7.70638 	-0.111294 	-6.98993e-20 7.69936 	-0.111907 	-8.9402e-20 7.69231 	-0.11252 	-1.08906e-19 7.68867 	-0.112486 	-1.0116e-19 7.68037 	-0.113713 	-7.88591e-20 7.67339 	-0.114354 	-6.78749e-20 7.66639 	-0.114995 	-5.68844e-20 7.65936 	-0.115637 	-4.58875e-20 7.65647 	-0.115502 	-6.78235e-20 7.64791 	-0.116869 	-8.16884e-20 7.64092 	-0.117549 	-6.38841e-20 7.63392 	-0.118221 	-4.56724e-20 7.62744 	-0.118795 	-2.56708e-20 7.62474 	-0.118664 	7.18214e-21 7.61621 	-0.120044 	1.1495e-20 7.60892 	-0.120889 	8.45388e-21 7.60193 	-0.121592 	3.4632e-21 7.59622 	-0.122056 	0 7.59345 	-0.121977 	0 7.58495 	-0.123371 	0 7.57733 	-0.124377 	0 7.57034 	-0.125113 	0 7.56538 	-0.125474 	0 7.56255 	-0.125447 	0 7.55405 	-0.126858 	0 7.54612 	-0.128021 	-6.73568e-21 7.53911 	-0.128791 	-2.41988e-20 7.53489 	-0.129054 	-4.17141e-20 7.53197 	-0.129081 	-5.92545e-20 7.52348 	-0.130509 	-4.03319e-20 7.51522 	-0.131827 	-2.06698e-20 7.50819 	-0.132631 	2.40524e-21 7.50468 	-0.132802 	8.8435e-21 7.50167 	-0.132883 	1.29024e-20 7.49318 	-0.13433 	4.50045e-20 7.48464 	-0.135778 	7.71049e-20 7.47781 	-0.13659 	9.41335e-20 7.47471 	-0.136724 	7.94171e-20 7.47159 	-0.136858 	6.46992e-20 7.4631 	-0.138327 	4.10214e-20 7.45455 	-0.139797 	1.73351e-20 7.44813 	-0.140637 	2.50067e-21 7.44492 	-0.140825 	1.17254e-20 7.4417 	-0.141013 	2.0951e-20 7.43318 	-0.142505 	8.34433e-20 7.42462 	-0.143997 	1.45939e-19 7.41859 	-0.144868 	1.46588e-19 7.41526 	-0.145109 	8.47147e-20 7.41192 	-0.145351 	2.28403e-20 7.40338 	-0.146867 	1.43995e-20 7.39479 	-0.148383 	5.96226e-21 7.38914 	-0.149286 	6.12799e-21 7.38568 	-0.149581 	1.51315e-20 7.38222 	-0.149877 	2.41361e-20 7.37364 	-0.151418 	8.51679e-20 7.36502 	-0.152959 	1.46203e-19 7.35973 	-0.153895 	1.46886e-19 7.35613 	-0.154244 	8.65023e-20 7.35253 	-0.154593 	2.61174e-20 7.34391 	-0.15616 	1.79233e-20 7.33564 	-0.157659 	9.72059e-21 7.33053 	-0.158606 	1.42316e-21 7.32655 	-0.159101 	0 7.3228 	-0.159504 	0 7.31413 	-0.161098 	0 7.30659 	-0.162491 	0 7.30136 	-0.163479 	0 7.2969 	-0.164156 	0 7.29299 	-0.164611 	0 7.28426 	-0.166234 	0 7.27742 	-0.167525 	0 7.27206 	-0.168555 	0 7.26712 	-0.169409 	5.25004e-21 7.26304 	-0.169917 	2.09057e-20 7.25424 	-0.171569 	3.63706e-21 7.24807 	-0.172762 	6.69159e-21 7.24258 	-0.173833 	1.51702e-20 7.23715 	-0.174864 	2.39816e-20 7.23289 	-0.175424 	3.66629e-20 7.2241 	-0.177091 	1.19704e-19 7.2185 	-0.178203 	1.24173e-19 7.21286 	-0.179316 	1.28621e-19 7.20718 	-0.180428 	1.33047e-19 7.2025 	-0.181132 	4.93289e-20 7.1944 	-0.182696 	1.24348e-19 7.18865 	-0.183849 	1.12629e-19 7.18285 	-0.185002 	1.00887e-19 7.17702 	-0.186156 	8.91231e-20 7.17182 	-0.187043 	3.7926e-20 7.16439 	-0.188505 	3.26318e-20 7.15847 	-0.189699 	3.31046e-20 7.15252 	-0.190894 	3.35825e-20 7.14652 	-0.192088 	3.40656e-20 7.14079 	-0.193156 	4.44333e-20 7.13442 	-0.194434 	4.778e-20 7.12874 	-0.195586 	4.5445e-20 7.12303 	-0.196738 	4.30963e-20 7.11729 	-0.197889 	4.07338e-20 7.11185 	-0.198972 	3.85009e-20 7.11134 	-0.199069 	3.84316e-20 7.11084 	-0.199167 	3.83624e-20 7.11033 	-0.199264 	3.82931e-20 7.10982 	-0.199362 	3.82237e-20 7.1094 	-0.19945 	3.84986e-20 7.10294 	-0.200734 	3.2512e-20 7.09649 	-0.202008 	2.60306e-20 7.08999 	-0.203282 	1.95575e-20 7.08345 	-0.204556 	1.30926e-20 7.07812 	-0.205697 	8.45753e-22 7.07078 	-0.207146 	-2.4646e-22 7.06414 	-0.20846 	-1.74608e-22 7.05744 	-0.209774 	-1.02732e-22 7.0507 	-0.211088 	-3.08292e-23 7.04637 	-0.212148 	0 7.03813 	-0.213759 	-4.83682e-21 7.03128 	-0.215112 	-1.8344e-20 7.02438 	-0.216466 	-3.18455e-20 7.01743 	-0.217819 	-4.53411e-20 7.01409 	-0.218798 	-5.56506e-20 7.00492 	-0.220571 	-4.36761e-20 6.99785 	-0.221963 	-2.87214e-20 6.99073 	-0.223355 	-1.37607e-20 6.98419 	-0.224683 	6.53798e-23 6.98124 	-0.225644 	7.25617e-21 6.97177 	-0.227463 	9.92941e-22 6.96381 	-0.229009 	8.71317e-21 6.95647 	-0.230438 	2.23917e-20 6.95096 	-0.231678 	3.9206e-20 6.94776 	-0.232682 	5.99517e-20 6.93808 	-0.234532 	3.83371e-20 6.92912 	-0.236245 	1.9066e-20 6.92154 	-0.237711 	4.01967e-21 6.91707 	-0.238863 	-2.20935e-21 6.91363 	-0.239909 	-5.47419e-21 6.90371 	-0.241789 	-5.60752e-20 6.89373 	-0.243669 	-1.06602e-19 6.88615 	-0.245145 	-1.07613e-19 6.88249 	-0.246232 	-6.78282e-20 6.87878 	-0.247318 	-2.80442e-20 6.86862 	-0.249228 	-6.84095e-20 6.85839 	-0.251138 	-1.08782e-19 6.85109 	-0.252655 	-1.08492e-19 6.84716 	-0.25378 	-6.61367e-20 6.84319 	-0.254906 	-2.37803e-20 6.83277 	-0.256844 	-6.62752e-20 6.82229 	-0.258782 	-1.08776e-19 6.81525 	-0.26034 	-1.04792e-19 6.81105 	-0.261502 	-5.67853e-20 6.8068 	-0.262665 	-8.77453e-21 6.79613 	-0.26463 	-6.05233e-21 6.78556 	-0.266579 	-3.32278e-21 6.77889 	-0.268146 	-3.80849e-22 6.77411 	-0.269392 	0 6.76958 	-0.27059 	0 6.75864 	-0.272581 	0 6.74922 	-0.27442 	0 6.74228 	-0.276016 	0 6.73632 	-0.277441 	0 6.7315 	-0.278673 	0 6.72028 	-0.280689 	0 6.71203 	-0.282416 	-2.26742e-21 6.7048 	-0.28404 	-5.33821e-21 6.69764 	-0.285644 	-7.7915e-21 6.69252 	-0.286908 	2.34934e-22 6.68142 	-0.288909 	-5.05761e-20 6.67395 	-0.29056 	-4.74345e-20 6.66643 	-0.29221 	-4.42714e-20 6.65884 	-0.293861 	-4.10866e-20 6.6526 	-0.295287 	-5.68269e-21 6.64271 	-0.297168 	-7.31373e-21 6.63495 	-0.298843 	1.21933e-21 6.62712 	-0.300518 	9.7537e-21 6.61924 	-0.302193 	1.82894e-20 6.61171 	-0.303803 	2.44052e-20 6.6078 	-0.304555 	3.2459e-20 6.60453 	-0.305248 	3.25351e-20 6.60124 	-0.30594 	3.26083e-20 6.59794 	-0.306633 	3.26787e-20 6.59473 	-0.307305 	3.27443e-20 6.5896 	-0.308312 	3.36266e-20 6.58445 	-0.309319 	3.4506e-20 6.57927 	-0.310326 	3.53825e-20 6.57407 	-0.311333 	3.6256e-20 6.5695 	-0.312261 	4.00428e-20 6.56033 	-0.314064 	4.07144e-20 6.55143 	-0.315778 	3.85627e-20 6.54245 	-0.317493 	3.64161e-20 6.53342 	-0.319207 	3.42744e-20 6.52608 	-0.320711 	1.91273e-20 6.51598 	-0.32268 	3.332e-20 6.50672 	-0.324412 	2.73606e-20 6.4974 	-0.326145 	2.14128e-20 6.48827 	-0.327847 	1.33069e-20 6.48149 	-0.329265 	-1.48901e-20 6.47079 	-0.331305 	-7.89068e-21 6.46079 	-0.333149 	-6.8487e-21 6.4511 	-0.334898 	-8.74523e-21 6.44281 	-0.336478 	-9.30912e-21 6.43569 	-0.337915 	-8.73564e-21 6.42461 	-0.339964 	-7.40718e-21 6.4136 	-0.341979 	-5.57034e-21 6.40354 	-0.343742 	-3.841e-23 6.39611 	-0.345196 	5.11431e-21 6.38865 	-0.346648 	1.0268e-20 6.37719 	-0.348706 	6.07801e-21 6.36565 	-0.350763 	1.89198e-21 6.35593 	-0.352524 	0 6.34817 	-0.353989 	0 6.34035 	-0.355454 	0 6.32849 	-0.357518 	0 6.31656 	-0.359581 	0 6.30711 	-0.361358 	0 6.29894 	-0.362845 	0 6.29075 	-0.36432 	0 6.2785 	-0.366388 	0 6.26734 	-0.368325 	1.89872e-21 6.2577 	-0.370087 	6.35796e-21 6.2484 	-0.371753 	1.08245e-20 6.23984 	-0.373235 	1.53034e-20 6.22718 	-0.375304 	1.17461e-20 6.21702 	-0.37709 	1.22375e-20 6.207 	-0.378854 	1.305e-20 6.1969 	-0.380618 	1.38684e-20 6.1876 	-0.382185 	1.59489e-20 6.17576 	-0.384119 	3.64215e-21 6.16541 	-0.385883 	-2.21439e-21 6.155 	-0.387646 	-8.05833e-21 6.14451 	-0.389409 	-1.38896e-20 6.13399 	-0.39116 	-1.90222e-20 6.13322 	-0.391281 	-1.87386e-20 6.13255 	-0.391393 	-1.85388e-20 6.13187 	-0.391504 	-1.8339e-20 6.1312 	-0.391615 	-1.81393e-20 6.13052 	-0.391726 	-1.79404e-20 6.1209 	-0.393379 	-1.73164e-20 6.11121 	-0.395032 	-1.67094e-20 6.10146 	-0.396685 	-1.61194e-20 6.09164 	-0.398337 	-1.55464e-20 6.08192 	-0.399838 	-4.57162e-21 6.0717 	